  -4.50000000         0.00000000    
  -4.41547155         0.00000000    
  -4.33094311         0.00000000    
  -4.24641466         0.00000000    
  -4.16188622         0.00000000    
  -4.07735777         0.00000000    
  -3.99282932         0.00000000    
  -3.90830088         0.00000000    
  -3.82377243         0.00000000    
  -3.73924398         0.00000000    
  -3.65471554         0.00000000    
  -3.57018733         0.00000000    
  -3.48565888         0.00000000    
  -3.40113044         0.00000000    
  -3.31660199         0.00000000    
  -3.23207355         0.00000000    
  -3.14754510         0.00000000    
  -3.06301665         0.00000000    
  -2.97848821         0.00000000    
  -2.89395976         0.00000000    
  -2.80943131         0.00000000    
  -2.72490287         0.00000000    
  -2.64037442         0.00000000    
  -2.55584598         0.00000000    
  -2.47131753         0.00000000    
  -2.38678908         0.00000000    
  -2.30226064        -4.73184506E-34
  -2.21773219        -3.03136446E-33
  -2.13320374        -8.64473680E-33
  -2.04867530        -7.10795426E-33
  -1.96414697         1.55290342E-32
  -1.87961853         6.80620574E-32
  -1.79509008         9.86981850E-32
  -1.71056163         6.47272975E-32
  -1.62603319        -1.27998451E-31
  -1.54150474        -5.97217052E-31
  -1.45697629        -1.38864590E-30
  -1.37244797        -2.48070196E-30
  -1.28791952        -3.70190593E-30
  -1.20339108        -4.69115308E-30
  -1.11886263        -4.84516352E-30
  -1.03433418        -2.64137624E-30
 -0.949805737         3.67719271E-30
 -0.865277290         1.08235149E-29
 -0.780748844         1.92403095E-29
 -0.696220458         2.98070640E-29
 -0.611692011         5.78481406E-29
 -0.527163565         1.17442064E-28
 -0.442635119         2.29182004E-28
 -0.358106703         4.23476076E-28
 -0.273578256         7.23855233E-28
 -0.189049825         1.15620633E-27
 -0.104521386         1.72650857E-27
  -1.99929532E-02     2.41229312E-27
   6.45354837E-02     3.14540606E-27
  0.149063915         3.79102978E-27
  0.233592346         4.14327119E-27
  0.318120778         3.91651336E-27
  0.402649224         2.74276286E-27
  0.487177670         1.88481170E-28
  0.571706116        -4.21121145E-27
  0.656234503        -1.09011872E-26
  0.740762949        -2.02340711E-26
  0.825291395        -3.23804260E-26
  0.909819841        -4.72284923E-26
  0.994348288        -6.42802076E-26
   1.07887673        -8.25570116E-26
   1.16340518        -1.00529451E-25
   1.24793363        -1.16086158E-25
   1.33246195        -1.26559063E-25
   1.41699040        -1.28821109E-25
   1.50151885        -1.19476707E-25
   1.58604729        -9.51643894E-26
   1.67057574        -5.29977587E-26
   1.75510418         8.82364650E-27
   1.83963263         9.02032185E-26
   1.92416108         1.88103550E-25
   2.00868940         2.95259001E-25
   2.09321785         3.98671714E-25
   2.17774630         4.77987734E-25
   2.26227474         5.03955210E-25
   2.34680319         4.37309776E-25
   2.43133163         2.28597050E-25
   2.51586008        -1.80379788E-25
   2.60038853        -8.52667328E-25
   2.68491697        -1.84894757E-24
   2.76944542        -3.21623009E-24
   2.85397387        -4.97199583E-24
   2.93850231        -7.08396304E-24
   3.02303076        -9.44653913E-24
   3.10755920        -1.18562867E-23
   3.19208765        -1.39901941E-23
   3.27661610        -1.53920094E-23
   3.36114454        -1.54733584E-23
   3.44567299        -1.35369983E-23
   3.53020120        -8.82958206E-24
   3.61472964        -6.29648116E-25
   3.69925809         1.16265965E-23
   3.78378654         2.81843940E-23
   3.86831498         4.87842786E-23
   3.95284343         7.24690794E-23
   4.03737211         9.74117631E-23
   4.12190056         1.20800770E-22
   4.20642900         1.38825396E-22
   4.29095745         1.46806181E-22
   4.37548542         1.39510266E-22
   4.46001387         1.11679202E-22
   4.54454231         5.87737346E-23
   4.62907076        -2.20915164E-23
   4.71359921        -1.31090444E-22
   4.79812765        -2.64616688E-22
   4.88265610        -4.14359376E-22
   4.96718454        -5.66713787E-22
   5.05171299        -7.02739307E-22
   5.13624144        -7.98869215E-22
   5.22076988        -8.28542401E-22
   5.30529833        -7.64850706E-22
   5.38982677        -5.84183534E-22
   5.47435522        -2.70706266E-22
   5.55888367         1.78662253E-22
   5.64341211         7.49281090E-22
   5.72794056         1.40449553E-21
   5.81246901         2.08280261E-21
   5.89699745         2.69730188E-21
   5.98152590         3.13820995E-21
   6.06605434         3.27904634E-21
   6.15058279         2.98682560E-21
   6.23511124         2.13618929E-21
   6.31963968         6.26932172E-22
   6.40416813        -1.59618565E-21
   6.48869658        -4.52293998E-21
   6.57322502        -8.05860194E-21
   6.65775347        -1.20087989E-20
   6.74228191        -1.60709367E-20
   6.82681036        -1.98347620E-20
   6.91133881        -2.27943059E-20
   6.99586725        -2.43729042E-20
   7.08039570        -2.39620119E-20
   7.16492414        -2.09734649E-20
   7.24945259        -1.49035910E-20
   7.33398104        -5.40596902E-21
   7.41850948         7.63156348E-21
   7.50303793         2.40117559E-20
   7.58756638         4.31617286E-20
   7.67209482         6.40839633E-20
   7.75662327         8.53330377E-20
   7.84115171         1.05027122E-19
   7.92567968         1.20902166E-19
   8.01020813         1.30415208E-19
   8.09473705         1.30900970E-19
   8.17926502         1.19782409E-19
   8.26379395         9.48301245E-20
   8.34832191         5.44615521E-20
   8.43285084        -1.93727901E-21
   8.51737881        -7.36906321E-20
   8.60190773        -1.58542554E-19
   8.68643570        -2.52431767E-19
   8.77096462        -3.49371700E-19
   8.85549259        -4.41473221E-19
   8.94002151        -5.19147031E-19
   9.02454948        -5.71511648E-19
   9.10907841        -5.87022215E-19
   9.19360638        -5.54316838E-19
   9.27813530        -4.63256557E-19
   9.36266327        -3.06110206E-19
   9.44719219        -7.88135814E-20
   9.53172016         2.17791899E-19
   9.61624908         5.76851357E-19
   9.70077705         9.84641990E-19
   9.78530502         1.42009623E-18
   9.86983395         1.85481666E-18
   9.95436192         2.25367984E-18
   10.0388908         2.57609354E-18
   10.1234188         2.77794050E-18
   10.2079477         2.81418487E-18
   10.2924757         2.64207650E-18
   10.3770046         2.22483254E-18
   10.4615326         1.53563392E-18
   10.5460615         5.61710695E-19
   10.6305895        -6.91726789E-19
   10.7151184        -2.19800583E-18
   10.7996464        -3.90625663E-18
   10.8841753        -5.73975623E-18
   10.9687033        -7.59565959E-18
   11.0532322        -9.34641714E-18
   11.1377602        -1.08431550E-17
   11.2222891        -1.19212128E-17
   11.3068171        -1.24079838E-17
   11.3913460        -1.21330430E-17
   11.4758739        -1.09404777E-17
   11.5604029        -8.70303523E-18
   11.6449308        -5.33764512E-18
   11.7294598        -8.21532675E-19
   11.8139877         4.79211537E-18
   11.8985167         1.13600998E-17
   11.9830446         1.86382602E-17
   12.0675735         2.62751953E-17
   12.1521015         3.38122516E-17
   12.2366304         4.06914198E-17
   12.3211584         4.62723809E-17
   12.4056873         4.98597540E-17
   12.4902153         5.07407345E-17
   12.5747442         4.82329842E-17
   12.6592722         4.17412410E-17
   12.7438011         3.08204618E-17
   12.8283291         1.52421908E-17
   12.9128580        -4.94042927E-18
   12.9973860        -2.93338859E-17
   13.0819149        -5.71580612E-17
   13.1664429        -8.72183010E-17
   13.2509708        -1.17902076E-16
   13.3354998        -1.47205274E-16
   13.4200277        -1.72792379E-16
   13.5045567        -1.92092580E-16
   13.5890846        -2.02431981E-16
   13.6736135        -2.01198767E-16
   13.7581415        -1.86035845E-16
   13.8426704        -1.55052028E-16
   13.9271984        -1.07039567E-16
   14.0117273        -4.16854030E-17
   14.0962553         4.02417214E-17
   14.1807842         1.36743093E-16
   14.2653122         2.44497860E-16
   14.3498411         3.58841485E-16
   14.4343691         4.73826631E-16
   14.5188980         5.82374274E-16
   14.6034260         6.76518439E-16
   14.6879549         7.47741257E-16
   14.7724829         7.87391293E-16
   14.8570118         7.87168205E-16
   14.9415398         7.39656486E-16
   15.0260687         6.38882383E-16
   15.1105967         4.80866639E-16
   15.1951256         2.64143651E-16
   15.2796535        -9.78295509E-18
   15.3641825        -3.36075542E-16
   15.4487104        -7.06318170E-16
   15.5332394        -1.10841048E-15
   15.6177673        -1.52662146E-15
   15.7022963        -1.94181520E-15
   15.7868242        -2.33185672E-15
   15.8713531        -2.67220048E-15
   15.9558811        -2.93666238E-15
   16.0404091        -3.09837050E-15
   16.1249390        -3.13087348E-15
   16.2094669        -3.00940769E-15
   16.2939949        -2.71228060E-15
   16.3785229        -2.22235378E-15
   16.4630527        -1.52857397E-15
   16.5475807        -6.27510436E-16
   16.6321087         4.75181778E-16
   16.7166367         1.76342625E-15
   16.8011646         3.20962574E-15
   16.8856945         4.77388701E-15
   16.9702225         6.40366437E-15
   17.0547504         8.03394403E-15
   17.1392784         9.58802841E-15
   17.2238083         1.09790395E-14
   17.3083363         1.21121612E-14
   17.3928642         1.28876647E-14
   17.4773922         1.32046795E-14
   17.5619221         1.29656841E-14
   17.6464500         1.20815850E-14
   17.7309780         1.04772377E-14
   17.8155060         8.09724449E-15
   17.9000359         4.91174543E-15
   17.9845638         9.22021092E-16
   18.0690918        -3.83445717E-15
   18.1536198        -9.27973468E-15
   18.2381496        -1.52922244E-14
   18.3226776        -2.17048822E-14
   18.4072056        -2.83050510E-14
   18.4917336        -3.48361747E-14
   18.5762634        -4.10016158E-14
   18.6607914        -4.64707178E-14
   18.7453194        -5.08871747E-14
   18.8298473        -5.38799081E-14
   18.9143772        -5.50762201E-14
   18.9989052        -5.41172874E-14
   19.0834332        -5.06755655E-14
   19.1679611        -4.44739257E-14
   19.2524910        -3.53058715E-14
   19.3370190        -2.30563046E-14
   19.4215469        -7.72189540E-15
   19.5060749         1.05698116E-14
   19.5906048         3.15436730E-14
   19.6751328         5.47638683E-14
   19.7596607         7.96256100E-14
   19.8441887         1.05353016E-13
   19.9287186         1.31004311E-13
   20.0132465         1.55485339E-13
   20.0977745         1.77572055E-13
   20.1823025         1.95943156E-13
   20.2668324         2.09221881E-13
   20.3513603         2.16027405E-13
   20.4358883         2.15034872E-13
   20.5204163         2.05042174E-13
   20.6049442         1.85041693E-13
   20.6894741         1.54294749E-13
   20.7740021         1.12404952E-13
   20.8585300         5.93875602E-14
   20.9430580        -4.26925654E-15
   21.0275879        -7.75553192E-14
   21.1121159        -1.58905414E-13
   21.1966438        -2.46186264E-13
   21.2811718        -3.36706818E-13
   21.3657017        -4.27254613E-13
   21.4502296        -5.14160492E-13
   21.5347576        -5.93391926E-13
   21.6192856        -6.60675074E-13
   21.7038155        -7.11642659E-13
   21.7883434        -7.42006337E-13
   21.8728714        -7.47745832E-13
   21.9573994        -7.25310925E-13
   22.0419292        -6.71827557E-13
   22.1264572        -5.85299008E-13
   22.2109852        -4.64793839E-13
   22.2955132        -3.10609638E-13
   22.3800430        -1.24404420E-13
   22.4645710         9.07143962E-14
   22.5490990         3.30150051E-13
   22.6336269         5.87833276E-13
   22.7181568         8.56297455E-13
   22.8026848         1.12681782E-12
   22.8872128         1.38961195E-12
   22.9717407         1.63409661E-12
   23.0562706         1.84920395E-12
   23.1407986         2.02373968E-12
   23.2253265         2.14677972E-12
   23.3098545         2.20809503E-12
   23.3943844         2.19858745E-12
   23.4789124         2.11072696E-12
   23.5634403         1.93897437E-12
   23.6479683         1.68017271E-12
   23.7324982         1.33389697E-12
   23.8170261         9.02738116E-13
   23.9015541         3.92514526E-13
   23.9860821        -1.87607823E-13
   24.0706100        -8.25098562E-13
   24.1551399        -1.50416062E-12
   24.2396679        -2.20595352E-12
   24.3241959        -2.90894370E-12
   24.4087238        -3.58938725E-12
   24.4932537        -4.22194007E-12
   24.5777817        -4.78038832E-12
   24.6623096        -5.23848196E-12
   24.7468376        -5.57085454E-12
   24.8313675        -5.75399754E-12
   24.9158955        -5.76726817E-12
   25.0004234        -5.59387779E-12
   25.0849514        -5.22183165E-12
   25.1694813        -4.64478629E-12
   25.2540092        -3.86276167E-12
   25.3385372        -2.88268780E-12
   25.4230652        -1.71874331E-12
   25.5075951        -3.92459963E-13
   25.5921230         1.06743108E-12
   25.6766510         2.62542245E-12
   25.7611790         4.23992308E-12
   25.8457088         5.86420973E-12
   25.9302368         7.44763192E-12
   26.0147648         8.93701432E-12
   26.0992928         1.02782557E-11
   26.1838226         1.14180358E-11
   26.2683506         1.23056287E-11
   26.3528786         1.28947139E-11
   26.4374065         1.31451568E-11
   26.5219364         1.30247002E-11
   26.6064644         1.25104727E-11
   26.6909924         1.15903172E-11
   26.7755203         1.02638011E-11
   26.8600502         8.54293632E-12
   26.9445782         6.45253772E-12
   27.0291061         4.03015989E-12
   27.1136341         1.32565541E-12
   27.1981640        -1.59971678E-12
   27.2826920        -4.67460012E-12
   27.3672199        -7.81924005E-12
   27.4517479        -1.09475606E-11
   27.5362759        -1.39695564E-11
   27.6208057        -1.67939395E-11
   27.7053337        -1.93309570E-11
   27.7898617        -2.14953003E-11
   27.8743896        -2.32089938E-11
   27.9589195        -2.44041697E-11
   28.0434475        -2.50255875E-11
   28.1279755        -2.50328664E-11
   28.2125034        -2.44022025E-11
   28.2970333        -2.31276439E-11
   28.3815613        -2.12216703E-11
   28.4660892        -1.87152047E-11
   28.5506172        -1.56568768E-11
   28.6351471        -1.21116572E-11
   28.7196751        -8.15880263E-12
   28.8042030        -3.88925914E-12
   28.8887310         5.97441313E-13
   28.9732609         5.19661831E-12
   29.0577888         9.80212959E-12
   29.1423168         1.43100575E-11
   29.2268448         1.86222756E-11
   29.3113747         2.26497258E-11
   29.3959026         2.63151410E-11
   29.4804306         2.95552263E-11
   29.5649586         3.23219992E-11
   29.6494884         3.45833466E-11
   29.7340164         3.63226567E-11
   29.8185444         3.75375703E-11
   29.9030724         3.82379441E-11
   29.9876022         3.84430994E-11
   30.0721302         3.81784604E-11
   30.1566582         3.74718867E-11
   30.2411861         3.63498329E-11
   30.3257160         3.48336117E-11
   30.4102440         3.29359699E-11
   30.4947720         3.06582849E-11
   30.5792999         2.79885316E-11
   30.6638298         2.49002451E-11
   30.7483578         2.13526072E-11
   30.8328857         1.72917583E-11
   30.9174137         1.26534425E-11
   31.0019417         7.36680422E-12
   31.0864716         1.35949737E-12
   31.1709995        -5.43629161E-12
   31.2555275        -1.30768504E-11
   31.3400555        -2.15994098E-11
   31.4245853        -3.10143231E-11
   31.5091133        -4.12971463E-11
   31.5936413        -5.23813805E-11
   31.6781693        -6.41517048E-11
   31.7626991        -7.64386748E-11
   31.8472271        -8.90148857E-11
   31.9317551        -1.01593123E-10
   32.0162849        -1.13826948E-10
   32.1008110        -1.25313829E-10
   32.1853409        -1.35601017E-10
   32.2698708        -1.44194587E-10
   32.3543968        -1.50571236E-10
   32.4389267        -1.54193061E-10
   32.5234528        -1.54525046E-10
   32.6079826        -1.51054710E-10
   32.6925125        -1.43313500E-10
   32.7770386        -1.30899874E-10
   32.8615685        -1.13502277E-10
   32.9460983        -9.09222558E-11
   33.0306244        -6.30962713E-11
   33.1151543        -3.01153130E-11
   33.1996803         7.75805115E-12
   33.2842102         5.00768142E-11
   33.3687401         9.62016231E-11
   33.4532661         1.45298051E-10
   33.5377960         1.96339722E-10
   33.6223259         2.48119525E-10
   33.7068520         2.99266417E-10
   33.7913818         3.48270385E-10
   33.8759079         3.93514471E-10
   33.9604378         4.33313746E-10
   34.0449677         4.65960770E-10
   34.1294937         4.89776553E-10
   34.2140236         5.03166397E-10
   34.2985535         5.04678799E-10
   34.3830795         4.93066088E-10
   34.4676094         4.67345107E-10
   34.5521355         4.26855995E-10
   34.6366653         3.71316450E-10
   34.7211952         3.00870190E-10
   34.8057213         2.16126311E-10
   34.8902512         1.18188376E-10
   34.9747772         8.67007681E-12
   35.0593071        -1.10302587E-10
   35.1438370        -2.36107717E-10
   35.2283630        -3.65658948E-10
   35.3128929        -4.95456676E-10
   35.3974228        -6.21657781E-10
   35.4819489        -7.40163764E-10
   35.5664787        -8.46725967E-10
   35.6510048        -9.37067091E-10
   35.7355347        -1.00701658E-09
   35.8200645        -1.05265563E-09
   35.9045906        -1.07047182E-09
   35.9891205        -1.05751330E-09
   36.0736504        -1.01154563E-09
   36.1581764        -9.31198063E-10
   36.2427063        -8.16098911E-10
   36.3272324        -6.66994793E-10
   36.4117622        -4.85842866E-10
   36.4962921        -2.75877127E-10
   36.5808182        -4.16383247E-11
   36.6653481         2.11034593E-10
   36.7498779         4.75056161E-10
   36.8344040         7.42191530E-10
   36.9189339         1.00320374E-09
   37.0034599         1.24804889E-09
   37.0879898         1.46611845E-09
   37.1725197         1.64653213E-09
   37.2570457         1.77846760E-09
   37.3415756         1.85153237E-09
   37.4261055         1.85616356E-09
   37.5106316         1.78404969E-09
   37.5951614         1.62856317E-09
   37.6796875         1.38519241E-09
   37.7642174         1.05195974E-09
   37.8487473         6.29810315E-10
   37.9332733         1.22959642E-10
   38.0178032        -4.60819050E-10
   38.1023293        -1.10998122E-09
   38.1868591        -1.80908866E-09
   38.2713890        -2.53878851E-09
   38.3559151        -3.27591199E-09
   38.4404449        -3.99369871E-09
   38.5249748        -4.66215377E-09
   38.6095009        -5.24856114E-09
   38.6940308        -5.71811754E-09
   38.7785568        -6.03472428E-09
   38.8630867        -6.16191276E-09
   38.9476166        -6.06387607E-09
   39.0321426        -5.70663339E-09
   39.1166725        -5.05925213E-09
   39.2012024        -4.09514689E-09
   39.2857285        -2.79340462E-09
   39.3702583        -1.14009435E-09
   39.4547844         8.70446548E-10
   39.5393143         3.23443672E-09
   39.6238441         5.93756022E-09
   39.7083702         8.95408725E-09
   39.7929001         1.22461667E-08
   39.8774300         1.57633764E-08
   39.9619560         1.94425649E-08
   40.0464859         2.32079884E-08
   40.1310120         2.69718523E-08
   40.2155418         3.06350998E-08
   40.3000717         3.40886466E-08
   40.3845978         3.72151057E-08
   40.4691277         3.98906437E-08
   40.5536575         4.19873452E-08
   40.6381836         4.33759695E-08
   40.7227135         4.39289032E-08
   40.8072395         4.35233396E-08
   40.8917694         4.20447819E-08
   40.9762993         3.93905246E-08
   41.0608253         3.54733771E-08
   41.1453552         3.02251308E-08
   41.2298851         2.36001245E-08
   41.3144112         1.55784434E-08
   41.3989410         6.16889961E-09
   41.4834671        -4.58842253E-09
   41.5679970        -1.66201204E-08
   41.6525269        -2.98180041E-08
   41.7370529        -4.40383374E-08
   41.8215828        -5.91018257E-08
   41.9061089        -7.47944213E-08
   41.9906387        -9.08688946E-08
   42.0751686        -1.07047732E-07
   42.1596947        -1.23026325E-07
   42.2442245        -1.38477716E-07
   42.3287544        -1.53058124E-07
   42.4132805        -1.66412846E-07
   42.4978104        -1.78183981E-07
   42.5823364        -1.88017950E-07
   42.6668663        -1.95574444E-07
   42.7513962        -2.00535396E-07
   42.8359222        -2.02614473E-07
   42.9204521        -2.01567332E-07
   43.0049820        -1.97200961E-07
   43.0895081        -1.89384096E-07
   43.1740379        -1.78056354E-07
   43.2585640        -1.63237630E-07
   43.3430939        -1.45035855E-07
   43.4276237        -1.23655255E-07
   43.5121498        -9.94019942E-08
   43.5966797        -7.26896587E-08
   43.6812096        -4.40425758E-08
   43.7657356        -1.40978704E-08
   43.8502655         1.63944822E-08
   43.9347916         4.65733976E-08
   44.0193214         7.54704104E-08
   44.1038513         1.02015598E-07
   44.1883774         1.25045318E-07
   44.2729073         1.43312349E-07
   44.3574371         1.55497901E-07
   44.4419632         1.60225042E-07
   44.5264931         1.56075174E-07
   44.6110191         1.41604758E-07
   44.6955490         1.15364116E-07
   44.7800789         7.59176544E-08
   44.8646049         2.18643006E-08
   44.9491348        -4.81409188E-08
   45.0336647        -1.35365312E-07
   45.1181908        -2.40976789E-07
   45.2027206        -3.66023158E-07
   45.2872467        -5.11411656E-07
   45.3717766        -6.77889773E-07
   45.4563065        -8.66028188E-07
   45.5408325        -1.07620485E-06
   45.6253624        -1.30859223E-06
   45.7098885        -1.56314707E-06
   45.7944183        -1.83960105E-06
   45.8789482        -2.13745898E-06
   45.9634743        -2.45599585E-06
   46.0480042        -2.79425853E-06
   46.1325340        -3.15107536E-06
   46.2170601        -3.52506004E-06
   46.3015900        -3.91463254E-06
   46.3861160        -4.31802664E-06
   46.4706459        -4.73331829E-06
   46.5551758        -5.15844204E-06
   46.6397018        -5.59122418E-06
   46.7242317        -6.02940372E-06
   46.8087616        -6.47066463E-06
   46.8932877        -6.91267269E-06
   46.9778175        -7.35310232E-06
   47.0623436        -7.78967296E-06
   47.1468735        -8.22018046E-06
   47.2314034        -8.64252979E-06
   47.3159294        -9.05476736E-06
   47.4004593        -9.45510783E-06
   47.4849892        -9.84196777E-06
   47.5695152        -1.02139757E-05
   47.6540451        -1.05700101E-05
   47.7385712        -1.09091980E-05
   47.8231010        -1.12309453E-05
   47.9076309        -1.15349212E-05
   47.9921570        -1.18210919E-05
   48.0766869        -1.20896811E-05
   48.1612167        -1.23411992E-05
   48.2457428        -1.25763991E-05
   48.3302727        -1.27962812E-05
   48.4147987        -1.30020617E-05
   48.4993286        -1.31951510E-05
   48.5838585        -1.33771164E-05
   48.6683846        -1.35496575E-05
   48.7529144        -1.37145607E-05
   48.8374405        -1.38736768E-05
   48.9219704        -1.40288639E-05
   49.0065002        -1.41819510E-05
   49.0910263        -1.43347161E-05
   49.1755562        -1.44888245E-05
   49.2600861        -1.46458096E-05
   49.3446121        -1.48070212E-05
   49.4291420        -1.49736152E-05
   49.5136681        -1.51465174E-05
   49.5981979        -1.53263918E-05
   49.6827278        -1.55136458E-05
   49.7672539        -1.57084032E-05
   49.8517838        -1.59104984E-05
   49.9363136        -1.61194948E-05
   50.0208397        -1.63346722E-05
   50.1053696        -1.65550537E-05
   50.1898956        -1.67794187E-05
   50.2744255        -1.70063286E-05
   50.3589554        -1.72341643E-05
   50.4434814        -1.74611614E-05
   50.5280113        -1.76854373E-05
   50.6125412        -1.79050385E-05
   50.6970673        -1.81180094E-05
   50.7815971        -1.83223983E-05
   50.8661232        -1.85163426E-05
   50.9506531        -1.86980942E-05
   51.0351830        -1.88660633E-05
   51.1197090        -1.90188712E-05
   51.2042389        -1.91553900E-05
   51.2887688        -1.92747684E-05
   51.3732948        -1.93764663E-05
   51.4578247        -1.94602799E-05
   51.5423508        -1.95263474E-05
   51.6268806        -1.95751818E-05
   51.7114105        -1.96076435E-05
   51.7959366        -1.96249584E-05
   51.8804665        -1.96286928E-05
   51.9649963        -1.96207275E-05
   52.0495224        -1.96032543E-05
   52.1340523        -1.95787070E-05
   52.2185783        -1.95497450E-05
   52.3031082        -1.95191933E-05
   52.3876381        -1.94900003E-05
   52.4721642        -1.94651766E-05
   52.5566940        -1.94477398E-05
   52.6412201        -1.94406584E-05
   52.7257500        -1.94467848E-05
   52.8102798        -1.94687927E-05
   52.8948059        -1.95091543E-05
   52.9793358        -1.95700468E-05
   53.0638657        -1.96533292E-05
   53.1483917        -1.97604841E-05
   53.2329216        -1.98926009E-05
   53.3174477        -2.00503309E-05
   53.4019775        -2.02338761E-05
   53.4865074        -2.04429671E-05
   53.5710335        -2.06768673E-05
   53.6555634        -2.09343907E-05
   53.7400932        -2.12138784E-05
   53.8246193        -2.15132641E-05
   53.9091492        -2.18300902E-05
   53.9936752        -2.21615301E-05
   54.0782051        -2.25044623E-05
   54.1627350        -2.28555054E-05
   54.2472610        -2.32110779E-05
   54.3317909        -2.35674725E-05
   54.4163208        -2.39209039E-05
   54.5008469        -2.42675887E-05
   54.5853767        -2.46038162E-05
   54.6699028        -2.49259901E-05
   54.7544327        -2.52307182E-05
   54.8389626        -2.55148734E-05
   54.9234886        -2.57756292E-05
   55.0080185        -2.60105389E-05
   55.0925484        -2.62175527E-05
   55.1770744        -2.63950733E-05
   55.2616043        -2.65419803E-05
   55.3461304        -2.66576499E-05
   55.4306602        -2.67419709E-05
   55.5151901        -2.67953328E-05
   55.5997162        -2.68186268E-05
   55.6842461        -2.68132644E-05
   55.7687759        -2.67810810E-05
   55.8533020        -2.67243595E-05
   55.9378319        -2.66457864E-05
   56.0223579        -2.65483577E-05
   56.1068878        -2.64353985E-05
   56.1914177        -2.63104412E-05
   56.2759438        -2.61771966E-05
   56.3604736        -2.60394754E-05
   56.4449997        -2.59011467E-05
   56.5295296        -2.57660231E-05
   56.6140594        -2.56378571E-05
   56.6985855        -2.55202285E-05
   56.7831154        -2.54165025E-05
   56.8676453        -2.53297785E-05
   56.9521713        -2.52628379E-05
   57.0367012        -2.52180871E-05
   57.1212273        -2.51975234E-05
   57.2057571        -2.52027148E-05
   57.2902870        -2.52347654E-05
   57.3748131        -2.52942991E-05
   57.4593430        -2.53814524E-05
   57.5438728        -2.54958759E-05
   57.6283989        -2.56367312E-05
   57.7129288        -2.58027321E-05
   57.7974548        -2.59921344E-05
   57.8819847        -2.62027734E-05
   57.9665146        -2.64321225E-05
   58.0510406        -2.66772840E-05
   58.1355705        -2.69351058E-05
   58.2201004        -2.72021480E-05
   58.3046265        -2.74748054E-05
   58.3891563        -2.77493091E-05
   58.4736824        -2.80218246E-05
   58.5582123        -2.82884921E-05
   58.6427422        -2.85454626E-05
   58.7272682        -2.87890034E-05
   58.8117981        -2.90155058E-05
   58.8963280        -2.92215664E-05
   58.9808540        -2.94040510E-05
   59.0653839        -2.95600730E-05
   59.1499100        -2.96871312E-05
   59.2344398        -2.97830793E-05
   59.3189697        -2.98461964E-05
   59.4034958        -2.98751947E-05
   59.4880257        -2.98692630E-05
   59.5725517        -2.98280502E-05
   59.6570816        -2.97517217E-05
   59.7416115        -2.96409344E-05
   59.8261375        -2.94968486E-05
   59.9106674        -2.93211069E-05
   59.9951973        -2.91158340E-05
   60.0797234        -2.88836054E-05
   60.1642532        -2.86274317E-05
   60.2487793        -2.83507252E-05
   60.3333092        -2.80572549E-05
   60.4178391        -2.77511062E-05
   60.5023651        -2.74366284E-05
   60.5868950        -2.71184017E-05
   60.6714249        -2.68011536E-05
   60.7559509        -2.64897135E-05
   60.8404808        -2.61889600E-05
   60.9250069        -2.59037279E-05
   61.0095367        -2.56387739E-05
   61.0940666        -2.53986909E-05
   61.1785927        -2.51878555E-05
   61.2631226        -2.50103567E-05
   61.3476524        -2.48699271E-05
   61.4321785        -2.47699154E-05
   61.5167084        -2.47131829E-05
   61.6012344        -2.47021071E-05
   61.6857643        -2.47385033E-05
   61.7702942        -2.48235865E-05
   61.8548203        -2.49579698E-05
   61.9393501        -2.51416168E-05
   62.0238800        -2.53738344E-05
   62.1084061        -2.56532712E-05
   62.1929359        -2.59779081E-05
   62.2774620        -2.63450856E-05
   62.3619919        -2.67515206E-05
   62.4465218        -2.71933150E-05
   62.5310478        -2.76660303E-05
   62.6155777        -2.81647026E-05
   62.7001076        -2.86838913E-05
   62.7846336        -2.92177738E-05
   62.8691635        -2.97601709E-05
   62.9536896        -3.03046472E-05
   63.0382195        -3.08445597E-05
   63.1227493        -3.13731543E-05
   63.2072754        -3.18836319E-05
   63.2918053        -3.23692548E-05
   63.3763313        -3.28233946E-05
   63.4608612        -3.32396376E-05
   63.5453911        -3.36118683E-05
   63.6299171        -3.39343133E-05
   63.7144470        -3.42016610E-05
   63.7989769        -3.44090877E-05
   63.8835030        -3.45523622E-05