  -4.50000000         0.00000000    
  -4.41547155         0.00000000    
  -4.33094311         0.00000000    
  -4.24641466         0.00000000    
  -4.16188622         0.00000000    
  -4.07735777         0.00000000    
  -3.99282932         0.00000000    
  -3.90830088         0.00000000    
  -3.82377243         0.00000000    
  -3.73924398         0.00000000    
  -3.65471554         0.00000000    
  -3.57018733         0.00000000    
  -3.48565888         0.00000000    
  -3.40113044         0.00000000    
  -3.31660199         0.00000000    
  -3.23207355         0.00000000    
  -3.14754510         0.00000000    
  -3.06301665         0.00000000    
  -2.97848821         0.00000000    
  -2.89395976         0.00000000    
  -2.80943131         0.00000000    
  -2.72490287         0.00000000    
  -2.64037442         0.00000000    
  -2.55584598         0.00000000    
  -2.47131753         0.00000000    
  -2.38678908         0.00000000    
  -2.30226064         5.30268027E-34
  -2.21773219         1.82139691E-33
  -2.13320374         2.89771719E-33
  -2.04867530        -1.82178261E-32
  -1.96414697        -3.24479728E-32
  -1.87961853         1.64145620E-32
  -1.79509008         1.34548165E-31
  -1.71056163         3.19369872E-31
  -1.62603319         5.75927721E-31
  -1.54150474         8.92542704E-31
  -1.45697629         1.28468151E-30
  -1.37244797         1.83248755E-30
  -1.28791952         2.36802886E-30
  -1.20339108         2.55754055E-30
  -1.11886263         1.93110438E-30
  -1.03433418         3.02034810E-30
 -0.949805737         4.76818162E-30
 -0.865277290         8.58597775E-30
 -0.780748844         1.47653872E-29
 -0.696220458         2.42475724E-29
 -0.611692011         3.40738023E-29
 -0.527163565         3.55029657E-29
 -0.442635119         1.61350815E-29
 -0.358106703        -4.20296384E-29
 -0.273578256        -1.54755055E-28
 -0.189049825        -3.38383556E-28
 -0.104521386        -6.05472074E-28
  -1.99929532E-02    -9.54975444E-28
   6.45354837E-02    -1.36312054E-27
  0.149063915        -1.77728224E-27
  0.233592346        -2.10439913E-27
  0.318120778        -2.20721413E-27
  0.402649224        -1.90518633E-27
  0.487177670        -9.84034357E-28
  0.571706116         7.84610233E-28
  0.656234503         3.61098229E-27
  0.740762949         7.64650194E-27
  0.825291395         1.29356826E-26
  0.909819841         1.93670175E-26
  0.994348288         2.66293249E-26
   1.07887673         3.41825756E-26
   1.16340518         4.12487448E-26
   1.24793363         4.68271192E-26
   1.33246195         4.97328267E-26
   1.41699040         4.86528207E-26
   1.50151885         4.22090658E-26
   1.58604729         2.90176783E-26
   1.67057574         7.73713466E-27
   1.75510418        -2.28915756E-26
   1.83963263        -6.39899438E-26
   1.92416108        -1.16429768E-25
   2.00868940        -1.80595345E-25
   2.09321785        -2.55939634E-25
   2.17774630        -3.40256515E-25
   2.26227474        -4.28624565E-25
   2.34680319        -5.12052375E-25
   2.43133163        -5.75974070E-25
   2.51586008        -5.98901375E-25
   2.60038853        -5.51726014E-25
   2.68491697        -3.98335191E-25
   2.76944542        -9.83309880E-26
   2.85397387         3.87358783E-25
   2.93850231         1.08737021E-24
   3.02303076         2.00708973E-24
   3.10755920         3.11264772E-24
   3.19208765         4.31316247E-24
   3.27661610         5.44386205E-24
   3.36114454         6.25389007E-24
   3.44567299         6.40367819E-24
   3.53020120         5.47733303E-24
   3.61472964         3.01529341E-24
   3.69925809        -1.42878241E-24
   3.78378654        -8.20565777E-24
   3.86831498        -1.74654861E-23
   3.95284343        -2.90384148E-23
   4.03737211        -4.23153131E-23
   4.12190056        -5.61494784E-23
   4.20642900        -6.88053569E-23
   4.29095745        -7.79829331E-23
   4.37548542        -8.09450490E-23
   4.46001387        -7.47683944E-23
   4.54454231        -5.67257381E-23
   4.62907076        -2.47874974E-23
   4.71359921         2.17938870E-23
   4.79812765         8.18817109E-23
   4.88265610         1.51926394E-22
   4.96718454         2.25625679E-22
   5.05171299         2.93897161E-22
   5.13624144         3.45284065E-22
   5.22076988         3.66882849E-22
   5.30529833         3.45832102E-22
   5.38982677         2.71324707E-22
   5.47435522         1.37002407E-22
   5.55888367        -5.65081387E-23
   5.64341211        -2.99272648E-22
   5.72794056        -5.70378292E-22
   5.81246901        -8.37399403E-22
   5.89699745        -1.05747458E-21
   5.98152590        -1.18037795E-21
   6.06605434        -1.15380871E-21
   6.15058279        -9.30851223E-22
   6.23511124        -4.79246303E-22
   6.31963968         2.08257663E-22
   6.40416813         1.10359091E-21
   6.48869658         2.13450463E-21
   6.57322502         3.17887327E-21
   6.65775347         4.06386242E-21
   6.74228191         4.57162368E-21
   6.82681036         4.45275201E-21
   6.91133881         3.44820255E-21
   6.99586725         1.31946183E-21
   7.08039570        -2.11411916E-21
   7.16492414        -6.93319687E-21
   7.24945259        -1.30748247E-20
   7.33398104        -2.02918487E-20
   7.41850948        -2.81204961E-20
   7.50303793        -3.58618145E-20
   7.58756638        -4.25827119E-20
   7.67209482        -4.71417081E-20
   7.75662327        -4.82435127E-20
   7.84115171        -4.45248738E-20
   7.92567968        -3.46716146E-20
   8.01020813        -1.75643483E-20
   8.09473705         7.55317116E-21
   8.17926502         4.08929596E-20
   8.26379395         8.19416682E-20
   8.34832191         1.29296718E-19
   8.43285084         1.80538993E-19
   8.51737881         2.32164136E-19
   8.60190773         2.79595371E-19
   8.68643570         3.17297617E-19
   8.77096462         3.39013279E-19
   8.85549259         3.38128739E-19
   8.94002151         3.08175184E-19
   9.02454948         2.43453627E-19
   9.10907841         1.39759777E-19
   9.19360638        -4.83226757E-21
   9.27813530        -1.89184814E-19
   9.36266327        -4.08382532E-19
   9.44719219        -6.53175002E-19
   9.53172016        -9.09667373E-19
   9.61624908        -1.15935050E-18
   9.70077705        -1.37955073E-18
   9.78530502        -1.54436130E-18
   9.86983395        -1.62608437E-18
   9.95436192        -1.59717234E-18
   10.0388908        -1.43261333E-18
   10.1234188        -1.11264695E-18
   10.2079477        -6.25652273E-19
   10.2924757         2.90066811E-20
   10.3770046         8.38414863E-19
   10.4615326         1.77409851E-18
   10.5460615         2.79083501E-18
   10.6305895         3.82654868E-18
   10.7151184         4.80348662E-18
   10.7996464         5.63084839E-18
   10.8841753         6.20891446E-18
   10.9687033         6.43468307E-18
   11.0532322         6.20884208E-18
   11.1377602         5.44387331E-18
   11.2222891         4.07291988E-18
   11.3068171         2.05898138E-18
   11.3913460        -5.96112827E-19
   11.4758739        -3.84355386E-18
   11.5604029        -7.58087539E-18
   11.6449308        -1.16474657E-17
   11.7294598        -1.58229444E-17
   11.8139877        -1.98290827E-17
   11.8985167        -2.33358785E-17
   11.9830446        -2.59722933E-17
   12.0675735        -2.73420101E-17
   12.1521015        -2.70443889E-17
   12.2366304        -2.47004601E-17
   12.3211584        -1.99835338E-17
   12.4056873        -1.26535067E-17
   12.4902153        -2.59361468E-18
   12.5747442         1.01524170E-17
   12.6592722         2.53450621E-17
   12.7438011         4.25185393E-17
   12.8283291         6.09586583E-17
   12.9128580         7.96924463E-17
   12.9973860         9.74935055E-17
   13.0819149         1.12906633E-16
   13.1664429         1.24294422E-16
   13.2509708         1.29908424E-16
   13.3354998         1.27984931E-16
   13.4200277         1.16864805E-16
   13.5045567         9.51334599E-17
   13.5890846         6.17760518E-17
   13.6736135         1.63392424E-17
   13.7581415        -4.09111950E-17
   13.8426704        -1.08848875E-16
   13.9271984        -1.85376072E-16
   14.0117273        -2.67358141E-16
   14.0962553        -3.50617774E-16
   14.1807842        -4.30000934E-16
   14.2653122        -4.99524763E-16
   14.3498411        -5.52612500E-16
   14.4343691        -5.82414137E-16
   14.5188980        -5.82207408E-16
   14.6034260        -5.45864242E-16
   14.6879549        -4.68360198E-16
   14.7724829        -3.46301718E-16
   14.8570118        -1.78435034E-16
   14.9415398         3.38994927E-17
   15.0260687         2.86407886E-16
   15.1105967         5.71614043E-16
   15.1951256         8.78798165E-16
   15.2796535         1.19413117E-15
   15.3641825         1.50101470E-15
   15.4487104         1.78064431E-15
   15.5332394         2.01277538E-15
   15.6177673         2.17667795E-15
   15.7022963         2.25223710E-15
   15.7868242         2.22115650E-15
   15.8713531         2.06819315E-15
   15.9558811         1.78237077E-15
   16.0404091         1.35808572E-15
   16.1249390         7.96045375E-16
   16.2094669         1.03972884E-16
   16.2939949        -7.02985254E-16
   16.3785229        -1.60217775E-15
   16.4630527        -2.56373304E-15
   16.5475807        -3.55120998E-15
   16.6321087        -4.52260960E-15
   16.7166367        -5.43172202E-15
   16.8011646        -6.22976258E-15
   16.8856945        -6.86724339E-15
   16.9702225        -7.29600299E-15
   17.0547504        -7.47134390E-15
   17.1392784        -7.35414334E-15
   17.2238083        -6.91292049E-15
   17.3083363        -6.12571475E-15
   17.3928642        -4.98173492E-15
   17.4773922        -3.48269794E-15
   17.5619221        -1.64378655E-15
   17.6464500         5.05822295E-16
   17.7309780         2.92287480E-15
   17.8155060         5.55045274E-15
   17.9000359         8.31884949E-15
   17.9845638         1.11469053E-14
   18.0690918         1.39437581E-14
   18.1536198         1.66109090E-14
   18.2381496         1.90446176E-14
   18.3226776         2.11384187E-14
   18.4072056         2.27857402E-14
   18.4917336         2.38825344E-14
   18.5762634         2.43298271E-14
   18.6607914         2.40361133E-14
   18.7453194         2.29196274E-14
   18.8298473         2.09105042E-14
   18.9143772         1.79528345E-14
   18.9989052         1.40067943E-14
   19.0834332         9.05094091E-15
   19.1679611         3.08478939E-15
   19.2524910        -3.86812334E-15
   19.3370190        -1.17566233E-14
   19.4215469        -2.04976705E-14
   19.5060749        -2.99715426E-14
   19.5906048        -4.00165842E-14
   19.6751328        -5.04237494E-14
   19.7596607        -6.09314912E-14
   19.8441887        -7.12213152E-14
   19.9287186        -8.09150449E-14
   20.0132465        -8.95741950E-14
   20.0977745        -9.67026210E-14
   20.1823025        -1.01753099E-13
   20.2668324        -1.04138811E-13
   20.3513603        -1.03250070E-13
   20.4358883        -9.84769517E-14
   20.5204163        -8.92379568E-14
   20.6049442        -7.50139019E-14
   20.6894741        -5.53870507E-14
   20.7740021        -3.00834627E-14
   20.8585300         9.82441752E-16
   20.9430580         3.76639705E-14
   21.0275879         7.95410490E-14
   21.1121159         1.25884993E-13
   21.1966438         1.75632498E-13
   21.2811718         2.27371588E-13
   21.3657017         2.79342657E-13
   21.4502296         3.29457680E-13
   21.5347576         3.75338595E-13
   21.6192856         4.14376812E-13
   21.7038155         4.43813551E-13
   21.7883434         4.60841001E-13
   21.8728714         4.62720140E-13
   21.9573994         4.46914532E-13
   22.0419292         4.11232490E-13
   22.1264572         3.53974662E-13
   22.2109852         2.74078964E-13
   22.2955132         1.71255046E-13
   22.3800430         4.61041829E-14
   22.4645710        -9.97866611E-14
   22.5490990        -2.63779965E-13
   22.6336269        -4.42159926E-13
   22.7181568        -6.30144537E-13
   22.8026848        -8.21942937E-13
   22.8872128        -1.01085709E-12
   22.9717407        -1.18942887E-12
   23.0562706        -1.34963167E-12
   23.1407986        -1.48310086E-12
   23.2253265        -1.58139951E-12
   23.3098545        -1.63631576E-12
   23.3943844        -1.64017584E-12
   23.4789124        -1.58617856E-12
   23.5634403        -1.46872976E-12
   23.6479683        -1.28377289E-12
   23.7324982        -1.02910855E-12
   23.8170261        -7.04683761E-13
   23.9015541        -3.12849437E-13
   23.9860821         1.41431233E-13
   24.0706100         6.50433266E-13
   24.1551399         1.20359256E-12
   24.2396679         1.78751361E-12
   24.3241959         2.38606639E-12
   24.4087238         2.98059884E-12
   24.4932537         3.55025015E-12
   24.5777817         4.07239130E-12
   24.6623096         4.52318348E-12
   24.7468376         4.87825145E-12
   24.8313675         5.11346694E-12
   24.9158955         5.20582492E-12
   25.0004234         5.13439204E-12
   25.0849514         4.88129762E-12
   25.1694813         4.43275408E-12
   25.2540092         3.78002577E-12
   25.3385372         2.92036078E-12
   25.4230652         1.85779170E-12
   25.5075951         6.03801731E-13
   25.5921230        -8.22213608E-13
   25.6766510        -2.39271493E-12
   25.7611790        -4.07204912E-12
   25.8457088        -5.81677545E-12
   25.9302368        -7.57630330E-12
   26.0147648        -9.29383740E-12
   26.0992928        -1.09076472E-11
   26.1838226        -1.23526319E-11
   26.2683506        -1.35621679E-11
   26.3528786        -1.44701837E-11
   26.4374065        -1.50134349E-11
   26.5219364        -1.51339132E-11
   26.6064644        -1.47813168E-11
   26.6909924        -1.39155380E-11
   26.7755203        -1.25090060E-11
   26.8600502        -1.05489176E-11
   26.9445782        -8.03915615E-12
   27.0291061        -5.00185960E-12
   27.1136341        -1.47855946E-12
   27.1981640         2.46924313E-12
   27.2826920         6.76008208E-12
   27.3672199         1.12932060E-11
   27.4517479         1.59499861E-11
   27.5362759         2.05960422E-11
   27.6208057         2.50841084E-11
   27.7053337         2.92576276E-11
   27.7898617         3.29549617E-11
   27.8743896         3.60141986E-11
   27.9589195         3.82784186E-11
   28.0434475         3.96011869E-11
   28.1279755         3.98523124E-11
   28.2125034         3.89233923E-11
   28.2970333         3.67332414E-11
   28.3815613         3.32327291E-11
   28.4660892         2.84090407E-11
   28.5506172         2.22889485E-11
   28.6351471         1.49411403E-11
   28.7196751         6.47721763E-12
   28.8042030        -2.94852098E-12
   28.8887310        -1.31407749E-11
   28.9732609        -2.38662926E-11
   29.0577888        -3.48583974E-11
   29.1423168        -4.58227380E-11
   29.2268448        -5.64442625E-11
   29.3113747        -6.63952435E-11
   29.3959026        -7.53439602E-11
   29.4804306        -8.29640662E-11
   29.5649586        -8.89441298E-11
   29.6494884        -9.29971794E-11
   29.7340164        -9.48698967E-11
   29.8185444        -9.43511935E-11
   29.9030724        -9.12800668E-11
   29.9876022        -8.55521834E-11
   30.0721302        -7.71253339E-11
   30.1566582        -6.60233604E-11
   30.2411861        -5.23386057E-11
   30.3257160        -3.62327182E-11
   30.4102440        -1.79358924E-11
   30.4947720         2.25555685E-12
   30.5792999         2.39830569E-11
   30.6638298         4.68311709E-11
   30.7483578         7.03342454E-11
   30.8328857         9.39843273E-11
   30.9174137         1.17239995E-10
   31.0019417         1.39536216E-10
   31.0864716         1.60294847E-10
   31.1709995         1.78935616E-10
   31.2555275         1.94887564E-10
   31.3400555         2.07600742E-10
   31.4245853         2.16557855E-10
   31.5091133         2.21285684E-10
   31.5936413         2.21366758E-10
   31.6781693         2.16449886E-10
   31.7626991         2.06260745E-10
   31.8472271         1.90611513E-10
   31.9317551         1.69409708E-10
   32.0162849         1.42666268E-10
   32.1008110         1.10502295E-10
   32.1853409         7.31546698E-11
   32.2698708         3.09806000E-11
   32.3543968        -1.55398246E-11
   32.4389267        -6.58023497E-11
   32.5234528        -1.19079399E-10
   32.6079826        -1.74522855E-10
   32.6925125        -2.31169056E-10
   32.7770386        -2.87946528E-10
   32.8615685        -3.43686107E-10
   32.9460983        -3.97134103E-10
   33.0306244        -4.46968296E-10
   33.1151543        -4.91817087E-10
   33.1996803        -5.30282374E-10
   33.2842102        -5.60963831E-10
   33.3687401        -5.82488391E-10
   33.4532661        -5.93540772E-10
   33.5377960        -5.92896010E-10
   33.6223259        -5.79455928E-10
   33.7068520        -5.52284329E-10
   33.7913818        -5.10643583E-10
   33.8759079        -4.54031368E-10
   33.9604378        -3.82215287E-10
   34.0449677        -2.95264840E-10
   34.1294937        -1.93580707E-10
   34.2140236        -7.79184911E-11
   34.2985535         5.05923498E-11
   34.3830795         1.90437763E-10
   34.4676094         3.39714978E-10
   34.5521355         4.96138131E-10
   34.6366653         6.57053689E-10
   34.7211952         8.19464774E-10
   34.8057213         9.80068471E-10
   34.8902512         1.13530163E-09
   34.9747772         1.28139910E-09
   35.0593071         1.41446099E-09
   35.1438370         1.53052981E-09
   35.2283630         1.62567626E-09
   35.3128929         1.69609027E-09
   35.3974228         1.73817705E-09
   35.4819489         1.74865777E-09
   35.5664787         1.72466630E-09
   35.6510048         1.66384639E-09
   35.7355347         1.56443991E-09
   35.8200645         1.42536938E-09
   35.9045906         1.24630473E-09
   35.9891205         1.02771869E-09
   36.0736504         7.70922604E-10
   36.1581764         4.78083295E-10
   36.2427063         1.52217919E-10
   36.3272324        -2.02831849E-10
   36.4117622        -5.82450033E-10
   36.4962921        -9.81317250E-10
   36.5808182        -1.39350209E-09
   36.6653481        -1.81257276E-09
   36.7498779        -2.23171970E-09
   36.8344040        -2.64389266E-09
   36.9189339        -3.04194270E-09
   37.0034599        -3.41876549E-09
   37.0879898        -3.76743747E-09
   37.1725197        -4.08134904E-09
   37.2570457        -4.35430714E-09
   37.3415756        -4.58063365E-09
   37.4261055        -4.75522288E-09
   37.5106316        -4.87357887E-09
   37.5951614        -4.93181407E-09
   37.6796875        -4.92661689E-09
   37.7642174        -4.85518203E-09
   37.8487473        -4.71511408E-09
   37.9332733        -4.50430671E-09
   38.0178032        -4.22078861E-09
   38.1023293        -3.86257160E-09
   38.1868591        -3.42748208E-09
   38.2713890        -2.91300917E-09
   38.3559151        -2.31616659E-09
   38.4404449        -1.63339087E-09
   38.5249748        -8.60478466E-10
   38.6095009         7.40898922E-12
   38.6940308         9.75686754E-10
   38.7785568         2.05018980E-09
   38.8630867         3.23694871E-09
   38.9476166         4.54185312E-09
   39.0321426         5.97023897E-09
   39.1166725         7.52636442E-09
   39.2012024         9.21281895E-09
   39.2857285         1.10298304E-08
   39.3702583         1.29745299E-08
   39.4547844         1.50401629E-08
   39.5393143         1.72152728E-08
   39.6238441         1.94829024E-08
   39.7083702         2.18198206E-08
   39.7929001         2.41958418E-08
   39.8774300         2.65732112E-08
   39.9619560         2.89061859E-08
   40.0464859         3.11407433E-08
   40.1310120         3.32145760E-08
   40.2155418         3.50572549E-08
   40.3000717         3.65907304E-08
   40.3845978         3.77301674E-08
   40.4691277         3.83850249E-08
   40.5536575         3.84605272E-08
   40.6381836         3.78595004E-08
   40.7227135         3.64844475E-08
   40.8072395         3.42400348E-08
   40.8917694         3.10358139E-08
   40.9762993         2.67891505E-08
   41.0608253         2.14284199E-08
   41.1453552         1.48962185E-08
   41.2298851         7.15270687E-09
   41.3144112        -1.82114568E-09
   41.3989410        -1.20204318E-08
   41.4834671        -2.34134347E-08
   41.5679970        -3.59390455E-08
   41.6525269        -4.95047203E-08
   41.7370529        -6.39848778E-08
   41.8215828        -7.92200154E-08
   41.9061089        -9.50165884E-08
   41.9906387        -1.11147649E-07
   42.0751686        -1.27354426E-07
   42.1596947        -1.43348842E-07
   42.2442245        -1.58817102E-07
   42.3287544        -1.73424212E-07
   42.4132805        -1.86819463E-07
   42.4978104        -1.98643107E-07
   42.5823364        -2.08533663E-07
   42.6668663        -2.16136499E-07
   42.7513962        -2.21112671E-07
   42.8359222        -2.23148774E-07
   42.9204521        -2.21967113E-07
   43.0049820        -2.17336336E-07
   43.0895081        -2.09081733E-07
   43.1740379        -1.97096227E-07
   43.2585640        -1.81350146E-07
   43.3430939        -1.61901255E-07
   43.4276237        -1.38903431E-07
   43.5121498        -1.12614629E-07
   43.5966797        -8.34034921E-08
   43.6812096        -5.17544905E-08
   43.7657356        -1.82715123E-08
   43.8502655         1.63206249E-08
   43.9347916         5.11765244E-08
   44.0193214         8.53327009E-08
   44.1038513         1.17712482E-07
   44.1883774         1.47133065E-07
   44.2729073         1.72314984E-07
   44.3574371         1.91893918E-07
   44.4419632         2.04434684E-07
   44.5264931         2.08447460E-07
   44.6110191         2.02405985E-07
   44.6955490         1.84767501E-07
   44.7800789         1.53994364E-07
   44.8646049         1.08576913E-07
   44.9491348         4.70572061E-08
   45.0336647        -3.19464029E-08
   45.1181908        -1.29714621E-07
   45.2027206        -2.47402710E-07
   45.2872467        -3.86016353E-07
   45.3717766        -5.46388605E-07
   45.4563065        -7.29157989E-07
   45.5408325        -9.34749210E-07
   45.6253624        -1.16335468E-06
   45.7098885        -1.41491978E-06
   45.7944183        -1.68913073E-06
   45.8789482        -1.98540533E-06
   45.9634743        -2.30288811E-06
   46.0480042        -2.64044684E-06
   46.1325340        -2.99667749E-06
   46.2170601        -3.36990797E-06
   46.3015900        -3.75820923E-06
   46.3861160        -4.15941031E-06
   46.4706459        -4.57111491E-06
   46.5551758        -4.99072394E-06
   46.6397018        -5.41546297E-06
   46.7242317        -5.84241070E-06
   46.8087616        -6.26852670E-06
   46.8932877        -6.69069277E-06
   46.9778175        -7.10574614E-06
   47.0623436        -7.51051630E-06
   47.1468735        -7.90186641E-06
   47.2314034        -8.27673466E-06
   47.3159294        -8.63216792E-06
   47.4004593        -8.96536949E-06
   47.4849892        -9.27372821E-06
   47.5695152        -9.55485848E-06
   47.6540451        -9.80663481E-06
   47.7385712        -1.00272164E-05
   47.8231010        -1.02150789E-05
   47.9076309        -1.03690290E-05
   47.9921570        -1.04882329E-05
   48.0766869        -1.05722120E-05
   48.1612167        -1.06208699E-05
   48.2457428        -1.06344723E-05
   48.3302727        -1.06136604E-05
   48.4147987        -1.05594327E-05
   48.4993286        -1.04731316E-05
   48.5838585        -1.03564207E-05
   48.6683846        -1.02112572E-05
   48.7529144        -1.00398693E-05
   48.8374405        -9.84471444E-06
   48.9219704        -9.62844024E-06
   49.0065002        -9.39384699E-06
   49.0910263        -9.14384418E-06
   49.1755562        -8.88139766E-06
   49.2600861        -8.60949604E-06
   49.3446121        -8.33108788E-06
   49.4291420        -8.04905631E-06
   49.5136681        -7.76615707E-06
   49.5981979        -7.48498906E-06
   49.6827278        -7.20795470E-06
   49.7672539        -6.93722086E-06
   49.8517838        -6.67469794E-06
   49.9363136        -6.42201212E-06
   50.0208397        -6.18049125E-06
   50.1053696        -5.95114579E-06
   50.1898956        -5.73467059E-06
   50.2744255        -5.53144673E-06
   50.3589554        -5.34154515E-06
   50.4434814        -5.16474483E-06
   50.5280113        -5.00054784E-06
   50.6125412        -4.84821021E-06
   50.6970673        -4.70676969E-06
   50.7815971        -4.57508440E-06
   50.8661232        -4.45186515E-06
   50.9506531        -4.33572450E-06
   51.0351830        -4.22520861E-06
   51.1197090        -4.11885048E-06
   51.2042389        -4.01521038E-06
   51.2887688        -3.91292087E-06
   51.3732948        -3.81071482E-06
   51.4578247        -3.70747921E-06
   51.5423508        -3.60226909E-06
   51.6268806        -3.49435390E-06
   51.7114105        -3.38322639E-06
   51.7959366        -3.26862209E-06
   51.8804665        -3.15053126E-06
   51.9649963        -3.02920034E-06
   52.0495224        -2.90513003E-06
   52.1340523        -2.77906315E-06
   52.2185783        -2.65196672E-06
   52.3031082        -2.52501354E-06
   52.3876381        -2.39954579E-06
   52.4721642        -2.27705846E-06
   52.5566940        -2.15913792E-06
   52.6412201        -2.04744538E-06
   52.7257500        -1.94365794E-06
   52.8102798        -1.84943383E-06
   52.8948059        -1.76636775E-06
   52.9793358        -1.69594784E-06
   53.0638657        -1.63951779E-06
   53.1483917        -1.59823196E-06
   53.2329216        -1.57303850E-06
   53.3174477        -1.56463636E-06
   53.4019775        -1.57346267E-06
   53.4865074        -1.59965896E-06
   53.5710335        -1.64310200E-06
   53.6555634        -1.70334829E-06
   53.7400932        -1.77967581E-06
   53.8246193        -1.87108662E-06
   53.9091492        -1.97630811E-06
   53.9936752        -2.09383597E-06
   54.0782051        -2.22195445E-06
   54.1627350        -2.35876951E-06
   54.2472610        -2.50223911E-06
   54.3317909        -2.65023300E-06
   54.4163208        -2.80055156E-06
   54.5008469        -2.95097539E-06
   54.5853767        -3.09931988E-06
   54.6699028        -3.24346456E-06
   54.7544327        -3.38139216E-06
   54.8389626        -3.51122685E-06
   54.9234886        -3.63127197E-06
   55.0080185        -3.74002821E-06
   55.0925484        -3.83621955E-06
   55.1770744        -3.91880712E-06
   55.2616043        -3.98700831E-06
   55.3461304        -4.04028242E-06
   55.4306602        -4.07835159E-06
   55.5151901        -4.10117309E-06
   55.5997162        -4.10893108E-06
   55.6842461        -4.10203620E-06
   55.7687759        -4.08105734E-06
   55.8533020        -4.04674802E-06
   55.9378319        -3.99997725E-06
   56.0223579        -3.94171911E-06
   56.1068878        -3.87300315E-06
   56.1914177        -3.79489848E-06
   56.2759438        -3.70846692E-06
   56.3604736        -3.61474144E-06
   56.4449997        -3.51469635E-06
   56.5295296        -3.40921292E-06
   56.6140594        -3.29907857E-06
   56.6985855        -3.18495199E-06
   56.7831154        -3.06736138E-06
   56.8676453        -2.94669303E-06
   56.9521713        -2.82319138E-06
   57.0367012        -2.69697421E-06
   57.1212273        -2.56802127E-06
   57.2057571        -2.43620229E-06
   57.2902870        -2.30129513E-06
   57.3748131        -2.16300464E-06
   57.4593430        -2.02097567E-06
   57.5438728        -1.87483897E-06
   57.6283989        -1.72421915E-06
   57.7129288        -1.56879196E-06
   57.7974548        -1.40826955E-06
   57.8819847        -1.24246174E-06
   57.9665146        -1.07128312E-06
   58.0510406        -8.94778225E-07
   58.1355705        -7.13138036E-07
   58.2201004        -5.26717486E-07
   58.3046265        -3.36032599E-07
   58.3891563        -1.41776312E-07
   58.4736824         5.51742119E-08
   58.5582123         2.53799442E-07
   58.6427422         4.52902299E-07
   58.7272682         6.51152789E-07
   58.8117981         8.47099670E-07
   58.8963280         1.03918580E-06
   58.9808540         1.22579695E-06
   59.0653839         1.40525822E-06
   59.1499100         1.57588636E-06
   59.2344398         1.73602348E-06
   59.3189697         1.88404817E-06
   59.4034958         2.01841681E-06
   59.4880257         2.13771204E-06
   59.5725517         2.24064524E-06
   59.6570816         2.32608727E-06
   59.7416115         2.39310020E-06
   59.8261375         2.44095963E-06
   59.9106674         2.46913874E-06
   59.9951973         2.47736102E-06
   60.0797234         2.46558852E-06
   60.1642532         2.43401769E-06
   60.2487793         2.38309508E-06
   60.3333092         2.31350487E-06
   60.4178391         2.22615836E-06
   60.5023651         2.12219402E-06
   60.5868950         2.00294653E-06
   60.6714249         1.86995885E-06
   60.7559509         1.72492719E-06
   60.8404808         1.56973022E-06
   60.9250069         1.40636155E-06
   61.0095367         1.23693951E-06
   61.0940666         1.06368532E-06
   61.1785927         8.88878048E-07
   61.2631226         7.14865905E-07
   61.3476524         5.44032673E-07
   61.4321785         3.78767425E-07
   61.5167084         2.21457185E-07
   61.6012344         7.44655821E-08
   61.6857643        -5.98846555E-08
   61.7702942        -1.79338699E-07
   61.8548203        -2.81717917E-07
   61.9393501        -3.64949699E-07
   62.0238800        -4.27086889E-07
   62.1084061        -4.66315186E-07
   62.1929359        -4.81001223E-07
   62.2774620        -4.69676166E-07
   62.3619919        -4.31097277E-07
   62.4465218        -3.64245182E-07
   62.5310478        -2.68360594E-07
   62.6155777        -1.42965050E-07
   62.7001076         1.21272379E-08
   62.7846336         1.96764105E-07
   62.8691635         4.10476559E-07
   62.9536896         6.52407891E-07
   63.0382195         9.21359458E-07
   63.1227493         1.21571964E-06
   63.2072754         1.53352710E-06
   63.2918053         1.87241187E-06
   63.3763313         2.22963422E-06
   63.4608612         2.60209458E-06
   63.5453911         2.98635337E-06
   63.6299171         3.37865436E-06
   63.7144470         3.77496440E-06
   63.7989769         4.17101455E-06
   63.8835030         4.56236103E-06