  -4.50000000         0.00000000    
  -4.41547155         0.00000000    
  -4.33094311         0.00000000    
  -4.24641466         0.00000000    
  -4.16188622         0.00000000    
  -4.07735777         0.00000000    
  -3.99282932         0.00000000    
  -3.90830088         0.00000000    
  -3.82377243         0.00000000    
  -3.73924398         0.00000000    
  -3.65471554         0.00000000    
  -3.57018733         0.00000000    
  -3.48565888         0.00000000    
  -3.40113044         0.00000000    
  -3.31660199         0.00000000    
  -3.23207355         0.00000000    
  -3.14754510         0.00000000    
  -3.06301665         0.00000000    
  -2.97848821         0.00000000    
  -2.89395976         0.00000000    
  -2.80943131         0.00000000    
  -2.72490287         0.00000000    
  -2.64037442         0.00000000    
  -2.55584598         0.00000000    
  -2.47131753         0.00000000    
  -2.38678908         0.00000000    
  -2.30226064        -9.18916444E-34
  -2.21773219        -2.04221407E-33
  -2.13320374        -8.45771951E-34
  -2.04867530         2.22608479E-32
  -1.96414697         3.12403640E-32
  -1.87961853         7.20933507E-32
  -1.79509008         1.83841204E-31
  -1.71056163         4.09802392E-31
  -1.62603319         7.77322300E-31
  -1.54150474         1.33698029E-30
  -1.45697629         2.14570808E-30
  -1.37244797         3.11721165E-30
  -1.28791952         4.06380735E-30
  -1.20339108         4.32341594E-30
  -1.11886263         2.49183173E-30
  -1.03433418         4.25136697E-30
 -0.949805737         8.21600586E-30
 -0.865277290         1.69122980E-30
 -0.780748844        -1.73747213E-29
 -0.696220458        -5.06377418E-29
 -0.611692011        -1.14426792E-28
 -0.527163565        -2.32418409E-28
 -0.442635119        -4.34924478E-28
 -0.358106703        -7.53819091E-28
 -0.273578256        -1.22890316E-27
 -0.189049825        -1.89295918E-27
 -0.104521386        -2.76781575E-27
  -1.99929532E-02    -3.84823683E-27
   6.45354837E-02    -5.09287252E-27
  0.149063915        -6.40815864E-27
  0.233592346        -7.64567302E-27
  0.318120778        -8.59280916E-27
  0.402649224        -8.97883331E-27
  0.487177670        -8.48396099E-27
  0.571706116        -6.77562954E-27
  0.656234503        -3.55341971E-27
  0.740762949         1.38439523E-27
  0.825291395         8.05498475E-27
  0.909819841         1.61903208E-26
  0.994348288         2.51288498E-26
   1.07887673         3.37128583E-26
   1.16340518         4.02089152E-26
   1.24793363         4.22750004E-26
   1.33246195         3.70019306E-26
   1.41699040         2.10589808E-26
   1.50151885        -9.02772035E-27
   1.58604729        -5.64424986E-26
   1.67057574        -1.23485377E-25
   1.75510418        -2.10828057E-25
   1.83963263        -3.16664101E-25
   1.92416108        -4.35833078E-25
   2.00868940        -5.59036881E-25
   2.09321785        -6.72307397E-25
   2.17774630        -7.56912532E-25
   2.26227474        -7.89898504E-25
   2.34680319        -7.45452305E-25
   2.43133163        -5.97204584E-25
   2.51586008        -3.21503565E-25
   2.60038853         9.84694516E-26
   2.68491697         6.68055782E-25
   2.76944542         1.37648004E-24
   2.85397387         2.19296390E-24
   2.93850231         3.06453707E-24
   3.02303076         3.91656265E-24
   3.10755920         4.65699578E-24
   3.19208765         5.18513461E-24
   3.27661610         5.40521694E-24
   3.36114454         5.24448929E-24
   3.44567299         4.67453611E-24
   3.53020120         3.73347277E-24
   3.61472964         2.54559340E-24
   3.69925809         1.33393707E-24
   3.78378654         4.20550426E-25
   3.86831498         2.09077698E-25
   3.95284343         1.14485500E-24
   4.03737211         3.64922913E-24
   4.12190056         8.02767103E-24
   4.20642900         1.43548404E-23
   4.29095745         2.23446350E-23
   4.37548542         3.12185455E-23
   4.46001387         3.95912943E-23
   4.54454231         4.53969193E-23
   4.62907076         4.58824506E-23
   4.71359921         3.76965893E-23
   4.79812765         1.70981515E-23
   4.88265610        -1.96963958E-23
   4.96718454        -7.60196918E-23
   5.05171299        -1.54120563E-22
   5.13624144        -2.54418976E-22
   5.22076988        -3.74695223E-22
   5.30529833        -5.09283653E-22
   5.38982677        -6.48362784E-22
   5.47435522        -7.77448398E-22
   5.55888367        -8.77210398E-22
   5.64341211        -9.23736783E-22
   5.72794056        -8.89354060E-22
   5.81246901        -7.44101417E-22
   5.89699745        -4.57907830E-22
   5.98152590        -3.48513265E-24
   6.06605434         6.40126672E-22
   6.15058279         1.48349350E-21
   6.23511124         2.52241821E-21
   6.31963968         3.73358027E-21
   6.40416813         5.07057151E-21
   6.48869658         6.46080484E-21
   6.57322502         7.80382789E-21
   6.65775347         8.97156861E-21
   6.74228191         9.81108908E-21
   6.82681036         1.01502784E-20
   6.91133881         9.80681666E-21
   6.99586725         8.60054337E-21
   7.08039570         6.36906332E-21
   7.16492414         2.98610707E-21
   7.24945259        -1.61823377E-21
   7.33398104        -7.43664694E-21
   7.41850948        -1.43647700E-20
   7.50303793        -2.21843184E-20
   7.58756638        -3.05512988E-20
   7.67209482        -3.89915363E-20
   7.75662327        -4.69054447E-20
   7.84115171        -5.35837520E-20
   7.92567968        -5.82352535E-20
   8.01020813        -6.00268168E-20
   8.09473705        -5.81351582E-20
   8.17926502        -5.18088065E-20
   8.26379395        -4.04375417E-20
   8.34832191        -2.36261879E-20
   8.43285084        -1.26842836E-21
   8.51737881         2.63840291E-20
   8.60190773         5.86619236E-20
   8.68643570         9.44330842E-20
   8.77096462         1.32077428E-19
   8.85549259         1.69485870E-19
   8.94002151         2.04088140E-19
   9.02454948         2.32913820E-19
   9.10907841         2.52690468E-19
   9.19360638         2.59981057E-19
   9.27813530         2.51364265E-19
   9.36266327         2.23656816E-19
   9.44719219         1.74177483E-19
   9.53172016         1.01047169E-19
   9.61624908         3.51630157E-21
   9.70077705        -1.17693894E-19
   9.78530502        -2.60058812E-19
   9.86983395        -4.18951652E-19
   9.95436192        -5.87410473E-19
   10.0388908        -7.56013353E-19
   10.1234188        -9.12897410E-19
   10.2079477        -1.04396749E-18
   10.2924757        -1.13332574E-18
   10.3770046        -1.16395686E-18
   10.4615326        -1.11867772E-18
   10.5460615        -9.81347640E-19
   10.6305895        -7.38318461E-19
   10.7151184        -3.80063461E-19
   10.7996464         9.70837651E-20
   10.8841753         6.89191687E-19
   10.9687033         1.38310875E-18
   11.0532322         2.15511796E-18
   11.1377602         2.96999675E-18
   11.2222891         3.78064305E-18
   11.3068171         4.52843046E-18
   11.3913460         5.14437644E-18
   11.4758739         5.55126038E-18
   11.5604029         5.66673603E-18
   11.6449308         5.40744386E-18
   11.7294598         4.69411639E-18
   11.8139877         3.45758890E-18
   11.8985167         1.64553128E-18
   11.9830446        -7.70201362E-19
   12.0675735        -3.78599739E-18
   12.1521015        -7.35888824E-18
   12.2366304        -1.13994356E-17
   12.3211584        -1.57654884E-17
   12.4056873        -2.02574580E-17
   12.4902153        -2.46156526E-17
   12.5747442        -2.85204828E-17
   12.6592722        -3.15962513E-17
   12.7438011        -3.34192879E-17
   12.8283291        -3.35313808E-17
   12.9128580        -3.14589757E-17
   12.9973860        -2.67388598E-17
   13.0819149        -1.89505424E-17
   13.1664429        -7.75498781E-18
   13.2509708         7.06073430E-18
   13.3354998         2.55345576E-17
   13.4200277         4.74783805E-17
   13.5045567         7.24280866E-17
   13.5890846         9.95985544E-17
   13.6736135         1.27848440E-16
   13.7581415         1.55660277E-16
   13.8426704         1.81142138E-16
   13.9271984         2.02055792E-16
   14.0117273         2.15877477E-16
   14.0962553         2.19894928E-16
   14.1807842         2.11343111E-16
   14.2653122         1.87577828E-16
   14.3498411         1.46284721E-16
   14.4343691         8.57153601E-17
   14.5188980         4.94062903E-18
   14.6034260        -9.58939632E-17
   14.6879549        -2.15329592E-16
   14.7724829        -3.50392172E-16
   14.8570118        -4.96451146E-16
   14.9415398        -6.47161018E-16
   15.0260687        -7.94505946E-16
   15.1105967        -9.28967821E-16
   15.1951256        -1.03982612E-15
   15.2796535        -1.11559681E-15
   15.3641825        -1.14460452E-15
   15.4487104        -1.11567368E-15
   15.5332394        -1.01891086E-15
   15.6177673        -8.46546539E-16
   15.7022963        -5.93785713E-16
   15.7868242        -2.59617848E-16
   15.8713531         1.52474626E-16
   15.9558811         6.33966945E-16
   16.0404091         1.17096185E-15
   16.1249390         1.74412999E-15
   16.2094669         2.32896029E-15
   16.2939949         2.89635420E-15
   16.3785229         3.41356946E-15
   16.4630527         3.84550671E-15
   16.5475807         4.15631190E-15
   16.6321087         4.31124142E-15
   16.7166367         4.27871790E-15
   16.8011646         4.03248161E-15
   16.8856945         3.55373732E-15
   16.9702225         2.83316343E-15
   17.0547504         1.87267444E-15
   17.1392784         6.86775796E-16
   17.2238083        -6.96572897E-16
   17.3083363        -2.23574198E-15
   17.3928642        -3.87591435E-15
   17.4773922        -5.55036042E-15
   17.5619221        -7.18251667E-15
   17.6464500        -8.68884619E-15
   17.7309780        -9.98245862E-15
   17.8155060        -1.09773251E-14
   17.9000359        -1.15929588E-14
   17.9845638        -1.17593576E-14
   18.0690918        -1.14219225E-14
   18.1536198        -1.05461116E-14
   18.2381496        -9.12147843E-15
   18.3226776        -7.16482131E-15
   18.4072056        -4.72210577E-15
   18.4917336        -1.86896740E-15
   18.5762634         1.29049281E-15
   18.6607914         4.62670021E-15
   18.7453194         7.98942567E-15
   18.8298473         1.12143867E-14
   18.9143772         1.41313683E-14
   18.9989052         1.65736735E-14
   19.0834332         1.83883111E-14
   19.1679611         1.94465517E-14
   19.2524910         1.96540494E-14
   19.3370190         1.89600549E-14
   19.4215469         1.73647971E-14
   19.5060749         1.49245782E-14
   19.5906048         1.17537892E-14
   19.6751328         8.02346115E-15
   19.7596607         3.95600936E-15
   19.8441887        -1.83992417E-16
   19.9287186        -4.10282007E-15
   20.0132465        -7.49417567E-15
   20.0977745        -1.00584239E-14
   20.1823025        -1.15238638E-14
   20.2668324        -1.16687428E-14
   20.3513603        -1.03427576E-14
   20.4358883        -7.48669383E-15
   20.5204163        -3.14836598E-15
   20.6049442         2.50587688E-15
   20.6894741         9.18606638E-15
   20.7740021         1.64803372E-14
   20.8585300         2.38648094E-14
   20.9430580         3.07210447E-14
   21.0275879         3.63618234E-14
   21.1121159         4.00638046E-14
   21.1966438         4.11064446E-14
   21.2811718         3.88151866E-14
   21.3657017         3.26074583E-14
   21.4502296         2.20388893E-14
   21.5347576         6.84745077E-15
   21.6192856        -1.30065746E-14
   21.7038155        -3.73075357E-14
   21.7883434        -6.55604111E-14
   21.8728714        -9.69765243E-14
   21.9573994        -1.30472767E-13
   22.0419292        -1.64682585E-13
   22.1264572        -1.97981605E-13
   22.2109852        -2.28526887E-13
   22.2955132        -2.54309459E-13
   22.3800430        -2.73220601E-13
   22.4645710        -2.83129721E-13
   22.5490990        -2.81972308E-13
   22.6336269        -2.67847241E-13
   22.7181568        -2.39120708E-13
   22.8026848        -1.94532338E-13
   22.8872128        -1.33303633E-13
   22.9717407        -5.52415000E-14
   23.0562706         3.91647333E-14
   23.1407986         1.48661262E-13
   23.2253265         2.71162839E-13
   23.3098545         4.03713602E-13
   23.3943844         5.42474106E-13
   23.4789124         6.82747099E-13
   23.5634403         8.19041829E-13
   23.6479683         9.45182409E-13
   23.7324982         1.05446619E-12
   23.8170261         1.13986457E-12
   23.9015541         1.19427309E-12
   23.9860821         1.21080142E-12
   24.0706100         1.18309681E-12
   24.1551399         1.10568889E-12
   24.2396679         9.74350049E-13
   24.3241959         7.86445941E-13
   24.4087238         5.41267714E-13
   24.4932537         2.40324281E-13
   24.5777817        -1.12427605E-13
   24.6623096        -5.10420861E-13
   24.7468376        -9.44417071E-13
   24.8313675        -1.40254507E-12
   24.9158955        -1.87045887E-12
   25.0004234        -2.33161797E-12
   25.0849514        -2.76768647E-12
   25.1694813        -3.15906459E-12
   25.2540092        -3.48551613E-12
   25.3385372        -3.72690117E-12
   25.4230652        -3.86398032E-12
   25.5075951        -3.87927190E-12
   25.5921230        -3.75792453E-12
   25.6766510        -3.48858334E-12
   25.7611790        -3.06420492E-12
   25.8457088        -2.48279088E-12
   25.9302368        -1.74799292E-12
   26.0147648        -8.69575191E-13
   26.0992928         1.36326009E-13
   26.1838226         1.24715212E-12
   26.2683506         2.43411779E-12
   26.3528786         3.66265438E-12
   26.4374065         4.89313147E-12
   26.5219364         6.08183339E-12
   26.6064644         7.18219061E-12
   26.6909924         8.14625797E-12
   26.7755203         8.92635878E-12
   26.8600502         9.47692185E-12
   26.9445782         9.75640228E-12
   27.0291061         9.72922177E-12
   27.1136341         9.36770453E-12
   27.1981640         8.65387189E-12
   27.2826920         7.58102869E-12
   27.3672199         6.15507992E-12
   27.4517479         4.39546576E-12
   27.5362759         2.33563754E-12
   27.6208057         2.30519610E-14
   27.7053337        -2.48142219E-12
   27.7898617        -5.10469705E-12
   27.8743896        -7.76320761E-12
   27.9589195        -1.03653050E-11
   28.0434475        -1.28140797E-11
   28.1279755        -1.50107548E-11
   28.2125034        -1.68583151E-11
   28.2970333        -1.82654343E-11
   28.3815613        -1.91504139E-11
   28.4660892        -1.94450827E-11
   28.5506172        -1.90983635E-11
   28.6351471        -1.80794494E-11
   28.7196751        -1.63803433E-11
   28.8042030        -1.40176664E-11
   28.8887310        -1.10335838E-11
   28.9732609        -7.49577917E-12
   29.0577888        -3.49642364E-12
   29.1423168         8.49899957E-13
   29.2268448         5.40921257E-12
   29.3113747         1.00321045E-11
   29.3959026         1.45584430E-11
   29.4804306         1.88227437E-11
   29.5649586         2.26600197E-11
   29.6494884         2.59118282E-11
   29.7340164         2.84323953E-11
   29.8185444         3.00944582E-11
   29.9030724         3.07948805E-11
   29.9876022         3.04594371E-11
   30.0721302         2.90468951E-11
   30.1566582         2.65520991E-11
   30.2411861         2.30079098E-11
   30.3257160         1.84858812E-11
   30.4102440         1.30956765E-11
   30.4947720         6.98304522E-12
   30.5792999         3.26576982E-13
   30.6638298        -6.66694174E-12
   30.7483578        -1.37683068E-11
   30.8328857        -2.07328269E-11
   30.9174137        -2.73079441E-11
   31.0019417        -3.32417982E-11
   31.0864716        -3.82919668E-11
   31.1709995        -4.22344416E-11
   31.2555275        -4.48723107E-11
   31.3400555        -4.60442066E-11
   31.4245853        -4.56315055E-11
   31.5091133        -4.35647109E-11
   31.5936413        -3.98282969E-11
   31.6781693        -3.44638450E-11
   31.7626991        -2.75712300E-11
   31.8472271        -1.93079372E-11
   31.9317551        -9.88609628E-12
   32.0162849         4.32456805E-13
   32.1008110         1.13431877E-11
   32.1853409         2.25077179E-11
   32.2698708         3.35641202E-11
   32.3543968         4.41387239E-11
   32.4389267         5.38585149E-11
   32.5234528         6.23641555E-11
   32.6079826         6.93229849E-11
   32.6925125         7.44412448E-11
   32.7770386         7.74758382E-11
   32.8615685         7.82442028E-11
   32.9460983         7.66324573E-11
   33.0306244         7.26015636E-11
   33.1151543         6.61907265E-11
   33.1996803         5.75183651E-11
   33.2842102         4.67800486E-11
   33.3687401         3.42438820E-11
   33.4532661         2.02431058E-11
   33.5377960         5.16551645E-12
   33.6223259        -1.05582765E-11
   33.7068520        -2.64692261E-11
   33.7913818        -4.20960836E-11
   33.8759079        -5.69716670E-11
   33.9604378        -7.06507353E-11
   34.0449677        -8.27267699E-11
   34.1294937        -9.28485969E-11
   34.2140236        -1.00735600E-10
   34.2985535        -1.06190744E-10
   34.3830795        -1.09111699E-10
   34.4676094        -1.09498105E-10
   34.5521355        -1.07456398E-10
   34.6366653        -1.03200060E-10
   34.7211952        -9.70461697E-11
   34.8057213        -8.94080157E-11
   34.8902512        -8.07831232E-11
   34.9747772        -7.17378587E-11
   35.0593071        -6.28870844E-11
   35.1438370        -5.48728389E-11
   35.2283630        -4.83363002E-11
   35.3128929        -4.38916924E-11
   35.3974228        -4.20958476E-11
   35.4819489        -4.34173530E-11
   35.5664787        -4.82068621E-11
   35.6510048        -5.66668622E-11
   35.7355347        -6.88243837E-11
   35.8200645        -8.45054790E-11
   35.9045906        -1.03314288E-10
   35.9891205        -1.24615179E-10
   36.0736504        -1.47522231E-10
   36.1581764        -1.70892925E-10
   36.2427063        -1.93329547E-10
   36.3272324        -2.13189022E-10
   36.4117622        -2.28600028E-10
   36.4962921        -2.37489722E-10
   36.5808182        -2.37621228E-10
   36.6653481        -2.26639180E-10
   36.7498779        -2.02126788E-10
   36.8344040        -1.61676228E-10
   36.9189339        -1.02965039E-10
   37.0034599        -2.38478369E-11
   37.0879898         7.75439365E-11
   37.1725197         2.02693543E-10
   37.2570457         3.52579688E-10
   37.3415756         5.27553223E-10
   37.4261055         7.27212512E-10
   37.5106316         9.50271639E-10
   37.5951614         1.19443833E-09
   37.6796875         1.45629697E-09
   37.7642174         1.73120296E-09
   37.8487473         2.01319494E-09
   37.9332733         2.29493735E-09
   38.0178032         2.56768518E-09
   38.1023293         2.82129009E-09
   38.1868591         3.04424908E-09
   38.2713890         3.22379923E-09
   38.3559151         3.34607098E-09
   38.4404449         3.39629325E-09
   38.5249748         3.35906281E-09
   38.6095009         3.21867333E-09
   38.6940308         2.95950331E-09
   38.7785568         2.56646548E-09
   38.8630867         2.02550332E-09
   38.9476166         1.32414035E-09
   39.0321426         4.52054838E-10
   39.1166725        -5.98313565E-10
   39.2012024        -1.83115123E-09
   39.2857285        -3.24666360E-09
   39.3702583        -4.84049245E-09
   39.4547844        -6.60318022E-09
   39.5393143        -8.51968451E-09
   39.6238441        -1.05689928E-08
   39.7083702        -1.27238318E-08
   39.7929001        -1.49504977E-08
   39.8774300        -1.72088352E-08
   39.9619560        -1.94523668E-08
   40.0464859        -2.16285976E-08
   40.1310120        -2.36795170E-08
   40.2155418        -2.55422599E-08
   40.3000717        -2.71499889E-08
   40.3845978        -2.84329698E-08
   40.4691277        -2.93198141E-08
   40.5536575        -2.97389118E-08
   40.6381836        -2.96200362E-08
   40.7227135        -2.88960518E-08
   40.8072395        -2.75047487E-08
   40.8917694        -2.53907757E-08
   40.9762993        -2.25075709E-08
   41.0608253        -1.88193088E-08
   41.1453552        -1.43027954E-08
   41.2298851        -8.94926622E-09
   41.3144112        -2.76602652E-09
   41.3989410         4.22210622E-09
   41.4834671         1.19716299E-08
   41.5679970         2.04194510E-08
   41.6525269         2.94823970E-08
   41.7370529         3.90570634E-08
   41.8215828         4.90201266E-08
   41.9061089         5.92291656E-08
   41.9906387         6.95238924E-08
   42.0751686         7.97279966E-08
   42.1596947         8.96514294E-08
   42.2442245         9.90932492E-08
   42.3287544         1.07844969E-07
   42.4132805         1.15694412E-07
   42.4978104         1.22429924E-07
   42.5823364         1.27844956E-07
   42.6668663         1.31743306E-07
   42.7513962         1.33944013E-07
   42.8359222         1.34287006E-07
   42.9204521         1.32638533E-07
   43.0049820         1.28896588E-07
   43.0895081         1.22996212E-07
   43.1740379         1.14914684E-07
   43.2585640         1.04676090E-07
   43.3430939         9.23556343E-08
   43.4276237         7.80831968E-08
   43.5121498         6.20462615E-08
   43.5966797         4.44918911E-08
   43.6812096         2.57279407E-08
   43.7657356         6.12312245E-09
   43.8502655        -1.38940228E-08
   43.9347916        -3.38372423E-08
   44.0193214        -5.31658912E-08
   44.1038513        -7.12895485E-08
   44.1883774        -8.75737385E-08
   44.2729073        -1.01346906E-07
   44.3574371        -1.11908491E-07
   44.4419632        -1.18538075E-07
   44.5264931        -1.20505504E-07
   44.6110191        -1.17081896E-07
   44.6955490        -1.07551188E-07
   44.7800789        -9.12224323E-08
   44.8646049        -6.74423433E-08
   44.9491348        -3.56079219E-08
   45.0336647         4.82077356E-09
   45.1181908         5.43082699E-08
   45.2027206         1.13231906E-07
   45.2872467         1.81870448E-07
   45.3717766         2.60394074E-07
   45.4563065         3.48855025E-07
   45.5408325         4.47180241E-07
   45.6253624         5.55164888E-07
   45.7098885         6.72468389E-07
   45.7944183         7.98611040E-07
   45.8789482         9.32974274E-07
   45.9634743         1.07480230E-06
   46.0480042         1.22320455E-06
   46.1325340         1.37716313E-06
   46.2170601         1.53553970E-06
   46.3015900         1.69708585E-06
   46.3861160         1.86045554E-06
   46.4706459         2.02421870E-06
   46.5551758         2.18687546E-06
   46.6397018         2.34687855E-06
   46.7242317         2.50264452E-06
   46.8087616         2.65257790E-06
   46.8932877         2.79509140E-06
   46.9778175         2.92862569E-06
   47.0623436         3.05166850E-06
   47.1468735         3.16277851E-06
   47.2314034         3.26060240E-06
   47.3159294         3.34389438E-06
   47.4004593         3.41153782E-06
   47.4849892         3.46255592E-06
   47.5695152         3.49612810E-06
   47.6540451         3.51160497E-06
   47.7385712         3.50851428E-06
   47.8231010         3.48657204E-06
   47.9076309         3.44568161E-06
   47.9921570         3.38594259E-06
   48.0766869         3.30764306E-06
   48.1612167         3.21126004E-06
   48.2457428         3.09744610E-06
   48.3302727         2.96703115E-06
   48.4147987         2.82099245E-06
   48.4993286         2.66045686E-06
   48.5838585         2.48667106E-06
   48.6683846         2.30098772E-06
   48.7529144         2.10484086E-06
   48.8374405         1.89972980E-06
   48.9219704         1.68718759E-06
   49.0065002         1.46875948E-06
   49.0910263         1.24598387E-06
   49.1755562         1.02036392E-06
   49.2600861         7.93345407E-07
   49.3446121         5.66296876E-07
   49.4291420         3.40487446E-07
   49.5136681         1.17074727E-07
   49.5981979        -1.02922904E-07
   49.6827278        -3.18623506E-07
   49.7672539        -5.29303293E-07
   49.8517838        -7.34399350E-07
   49.9363136        -9.33512013E-07
   50.0208397        -1.12640953E-06
   50.1053696        -1.31302136E-06
   50.1898956        -1.49343487E-06
   50.2744255        -1.66788561E-06
   50.3589554        -1.83674365E-06
   50.4434814        -2.00050181E-06
   50.5280113        -2.15976138E-06
   50.6125412        -2.31520926E-06
   50.6970673        -2.46759760E-06
   50.7815971        -2.61773084E-06
   50.8661232        -2.76643595E-06
   50.9506531        -2.91454239E-06
   51.0351830        -3.06286643E-06
   51.1197090        -3.21219113E-06
   51.2042389        -3.36323660E-06
   51.2887688        -3.51665608E-06
   51.3732948        -3.67301527E-06
   51.4578247        -3.83278120E-06
   51.5423508        -3.99631244E-06
   51.6268806        -4.16385228E-06
   51.7114105        -4.33552395E-06
   51.7959366        -4.51132928E-06
   51.8804665        -4.69115639E-06
   51.9649963        -4.87477564E-06
   52.0495224        -5.06185597E-06
   52.1340523        -5.25196765E-06
   52.2185783        -5.44460272E-06
   52.3031082        -5.63918275E-06
   52.3876381        -5.83507335E-06
   52.4721642        -6.03160925E-06
   52.5566940        -6.22810057E-06
   52.6412201        -6.42385794E-06
   52.7257500        -6.61820513E-06
   52.8102798        -6.81050051E-06
   52.8948059        -7.00013970E-06
   52.9793358        -7.18658021E-06
   53.0638657        -7.36934362E-06
   53.1483917        -7.54803341E-06
   53.2329216        -7.72232670E-06
   53.3174477        -7.89199294E-06
   53.4019775        -8.05688069E-06
   53.4865074        -8.21693357E-06
   53.5710335        -8.37215248E-06
   53.6555634        -8.52263020E-06
   53.7400932        -8.66850951E-06
   53.8246193        -8.80998414E-06
   53.9091492        -8.94729055E-06
   53.9936752        -9.08068523E-06
   54.0782051        -9.21043738E-06
   54.1627350        -9.33681258E-06
   54.2472610        -9.46005821E-06
   54.3317909        -9.58039163E-06
   54.4163208        -9.69799476E-06
   54.5008469        -9.81299763E-06
   54.5853767        -9.92547848E-06
   54.6699028        -1.00354546E-05
   54.7544327        -1.01428759E-05
   54.8389626        -1.02476561E-05
   54.9234886        -1.03496404E-05
   55.0080185        -1.04486353E-05
   55.0925484        -1.05444187E-05
   55.1770744        -1.06367506E-05
   55.2616043        -1.07253891E-05
   55.3461304        -1.08101185E-05
   55.4306602        -1.08907525E-05
   55.5151901        -1.09671691E-05
   55.5997162        -1.10393348E-05
   55.6842461        -1.11073105E-05
   55.7687759        -1.11712889E-05
   55.8533020        -1.12315938E-05
   55.9378319        -1.12887192E-05
   56.0223579        -1.13433189E-05
   56.1068878        -1.13962233E-05
   56.1914177        -1.14484601E-05
   56.2759438        -1.15012272E-05
   56.3604736        -1.15558951E-05
   56.4449997        -1.16140127E-05
   56.5295296        -1.16772717E-05
   56.6140594        -1.17474883E-05
   56.6985855        -1.18265862E-05
   56.7831154        -1.19165497E-05
   56.8676453        -1.20194018E-05
   56.9521713        -1.21371486E-05
   57.0367012        -1.22717547E-05
   57.1212273        -1.24250746E-05
   57.2057571        -1.25988236E-05
   57.2902870        -1.27945186E-05
   57.3748131        -1.30134395E-05
   57.4593430        -1.32565710E-05
   57.5438728        -1.35245782E-05
   57.6283989        -1.38177475E-05
   57.7129288        -1.41359651E-05
   57.7974548        -1.44786954E-05
   57.8819847        -1.48449444E-05
   57.9665146        -1.52332541E-05
   58.0510406        -1.56416991E-05
   58.1355705        -1.60678865E-05
   58.2201004        -1.65089823E-05
   58.3046265        -1.69617160E-05
   58.3891563        -1.74224242E-05
   58.4736824        -1.78870869E-05
   58.5582123        -1.83513821E-05
   58.6427422        -1.88107406E-05
   58.7272682        -1.92604075E-05
   58.8117981        -1.96955225E-05
   58.8963280        -2.01111870E-05
   58.9808540        -2.05025535E-05
   59.0653839        -2.08649017E-05
   59.1499100        -2.11937204E-05
   59.2344398        -2.14848096E-05
   59.3189697        -2.17343277E-05
   59.4034958        -2.19389040E-05
   59.4880257        -2.20957008E-05
   59.5725517        -2.22024701E-05
   59.6570816        -2.22576236E-05
   59.7416115        -2.22602848E-05
   59.8261375        -2.22103354E-05
   59.9106674        -2.21084156E-05
   59.9951973        -2.19559770E-05
   60.0797234        -2.17552770E-05
   60.1642532        -2.15093587E-05
   60.2487793        -2.12220530E-05
   60.3333092        -2.08979436E-05
   60.4178391        -2.05423075E-05
   60.5023651        -2.01610728E-05
   60.5868950        -1.97607460E-05
   60.6714249        -1.93483411E-05
   60.7559509        -1.89312814E-05
   60.8404808        -1.85173212E-05
   60.9250069        -1.81144169E-05
   61.0095367        -1.77306410E-05
   61.0940666        -1.73740609E-05
   61.1785927        -1.70526164E-05
   61.2631226        -1.67740127E-05
   61.3476524        -1.65456004E-05
   61.4321785        -1.63742588E-05
   61.5167084        -1.62662782E-05
   61.6012344        -1.62272609E-05
   61.6857643        -1.62620272E-05
   61.7702942        -1.63745153E-05
   61.8548203        -1.65677047E-05
   61.9393501        -1.68435381E-05
   62.0238800        -1.72028758E-05
   62.1084061        -1.76454469E-05
   62.1929359        -1.81698142E-05
   62.2774620        -1.87733749E-05
   62.3619919        -1.94523454E-05
   62.4465218        -2.02017945E-05
   62.5310478        -2.10156577E-05
   62.6155777        -2.18868317E-05
   62.7001076        -2.28071731E-05
   62.7846336        -2.37676504E-05
   62.8691635        -2.47583976E-05
   62.9536896        -2.57688353E-05
   63.0382195        -2.67878168E-05
   63.1227493        -2.78037387E-05
   63.2072754        -2.88046849E-05
   63.2918053        -2.97786119E-05
   63.3763313        -3.07134724E-05
   63.4608612        -3.15973884E-05
   63.5453911        -3.24188477E-05
   63.6299171        -3.31668125E-05
   63.7144470        -3.38309401E-05
   63.7989769        -3.44016808E-05
   63.8835030        -3.48704853E-05