  -4.50000000         0.00000000    
  -4.41547155         0.00000000    
  -4.33094311         0.00000000    
  -4.24641466         0.00000000    
  -4.16188622         0.00000000    
  -4.07735777         0.00000000    
  -3.99282932         0.00000000    
  -3.90830088         0.00000000    
  -3.82377243         0.00000000    
  -3.73924398         0.00000000    
  -3.65471554         0.00000000    
  -3.57018733         0.00000000    
  -3.48565888         0.00000000    
  -3.40113044         0.00000000    
  -3.31660199        -6.32971967E-35
  -3.23207355        -4.49508305E-34
  -3.14754510        -1.01334436E-33
  -3.06301665        -1.69670414E-33
  -2.97848821        -1.41892858E-33
  -2.89395976         3.30213187E-33
  -2.80943131         1.58183999E-30
  -2.72490287         4.84520340E-30
  -2.64037442         8.10978856E-30
  -2.55584598         8.18405348E-30
  -2.47131753         9.92900845E-30
  -2.38678908         3.26099903E-29
  -2.30226064         1.13355699E-28
  -2.21773219         3.46381173E-28
  -2.13320374         9.19285459E-28
  -2.04867530         2.14274074E-27
  -1.96414697         4.44782504E-27
  -1.87961853         8.28769563E-27
  -1.79509008         1.39041249E-26
  -1.71056163         2.08574115E-26
  -1.62603319         2.73246842E-26
  -1.54150474         2.92342114E-26
  -1.45697629         1.95065226E-26
  -1.37244797        -1.21274291E-26
  -1.28791952        -7.80666982E-26
  -1.20339108        -1.89809412E-25
  -1.11886263        -3.52425360E-25
  -1.03433418        -5.56551772E-25
 -0.949805737        -7.68842327E-25
 -0.865277290        -9.22963315E-25
 -0.780748844        -9.14405259E-25
 -0.696220458        -6.03236955E-25
 -0.611692011         1.70846700E-25
 -0.527163565         1.55749266E-24
 -0.442635119         3.64667243E-24
 -0.358106703         6.40241641E-24
 -0.273578256         9.58404705E-24
 -0.189049825         1.26650254E-23
 -0.104521386         1.47668372E-23
  -1.99929532E-02     1.46342959E-23
   6.45354837E-02     1.06887450E-23
  0.149063915         1.20358549E-24
  0.233592346        -1.53523850E-23
  0.318120778        -3.97718740E-23
  0.402649224        -7.13709598E-23
  0.487177670        -1.07125632E-22
  0.571706116        -1.40846621E-22
  0.656234503        -1.62665226E-22
  0.740762949        -1.59202316E-22
  0.825291395        -1.14840200E-22
  0.909819841        -1.44637773E-23
  0.994348288         1.52165488E-22
   1.07887673         3.84616367E-22
   1.16340518         6.65334173E-22
   1.24793363         9.53922413E-22
   1.33246195         1.18416075E-21
   1.41699040         1.26613624E-21
   1.50151885         1.09578187E-21
   1.58604729         5.73368643E-22
   1.67057574        -3.69048241E-22
   1.75510418        -1.73356660E-21
   1.83963263        -3.42098314E-21
   1.92416108        -5.20212272E-21
   2.00868940        -6.70643952E-21
   2.09321785        -7.43912444E-21
   2.17774630        -6.83635453E-21
   2.26227474        -4.36348598E-21
   2.34680319         3.46931307E-22
   2.43133163         7.33140436E-21
   2.51586008         1.61322773E-20
   2.60038853         2.56727572E-20
   2.68491697         3.42154439E-20
   2.76944542         3.94499656E-20
   2.85397387         3.87454953E-20
   2.93850231         2.95819368E-20
   3.02303076         1.01398506E-20
   3.10755920        -2.00140582E-20
   3.19208765        -5.92550573E-20
   3.27661610        -1.03391806E-19
   3.36114454        -1.45494879E-19
   3.44567299        -1.76231450E-19
   3.53020120        -1.84833715E-19
   3.61472964        -1.60742894E-19
   3.69925809        -9.58462254E-20
   3.78378654         1.29310148E-20
   3.86831498         1.61077036E-19
   3.95284343         3.34525256E-19
   4.03737211         5.08879083E-19
   4.12190056         6.50420904E-19
   4.20642900         7.19347538E-19
   4.29095745         6.75385887E-19
   4.37548542         4.85519916E-19
   4.46001387         1.33052402E-19
   4.54454231        -3.73300200E-19
   4.62907076        -9.92037812E-19
   4.71359921        -1.64523101E-18
   4.79812765        -2.22055705E-18
   4.88265610        -2.58053220E-18
   4.96718454        -2.57957866E-18
   5.05171299        -2.08831403E-18
   5.13624144        -1.02290261E-18
   5.22076988         6.24279205E-19
   5.30529833         2.75781934E-18
   5.38982677         5.16229193E-18
   5.47435522         7.50116496E-18
   5.55888367         9.33659933E-18
   5.64341211         1.01728980E-17
   5.72794056         9.52306818E-18
   5.81246901         6.99380298E-18
   5.89699745         2.37977980E-18
   5.98152590        -4.24586101E-18
   6.06605434        -1.24608299E-17
   6.15058279        -2.14596575E-17
   6.23511124        -3.00714795E-17
   6.31963968        -3.68401926E-17
   6.40416813        -4.01701736E-17
   6.48869658        -3.85310953E-17
   6.57322502        -3.07046333E-17
   6.65775347        -1.60455767E-17
   6.74228191         5.27877550E-18
   6.82681036         3.21111415E-17
   6.91133881         6.22285526E-17
   6.99586725         9.24010838E-17
   7.08039570         1.18604703E-16
   7.16492414         1.36389272E-16
   7.24945259         1.41380943E-16
   7.33398104         1.29875244E-16
   7.41850948         9.94569411E-17
   7.50303793         4.95681199E-17
   7.58756638        -1.80592205E-17
   7.67209482        -9.91852817E-17
   7.75662327        -1.87121291E-16
   7.84115171        -2.73098881E-16
   7.92567968        -3.46949936E-16
   8.01020813        -3.98054134E-16
   8.09473705        -4.16476650E-16
   8.17926502        -3.94181287E-16
   8.26379395        -3.26188550E-16
   8.34832191        -2.11537651E-16
   8.43285084        -5.39267496E-17
   8.51737881         1.38068528E-16
   8.60190773         3.51256252E-16
   8.68643570         5.68575419E-16
   8.77096462         7.70284457E-16
   8.85549259         9.35495692E-16
   8.94002151         1.04392576E-15
   9.02454948         1.07770786E-15
   9.10907841         1.02310950E-15
   9.19360638         8.72012161E-16
   9.27813530         6.23039161E-16
   9.36266327         2.82253639E-16
   9.44719219        -1.36612902E-16
   9.53172016        -6.12403497E-16
   9.61624908        -1.11722852E-15
   9.70077705        -1.61757289E-15
   9.78530502        -2.07578193E-15
   9.86983395        -2.45189399E-15
   9.95436192        -2.70579741E-15
   10.0388908        -2.79969355E-15
   10.1234188        -2.70082956E-15
   10.2079477        -2.38444666E-15
   10.2924757        -1.83682716E-15
   10.3770046        -1.05826401E-15
   10.4615326        -6.57084882E-17
   10.5460615         1.10522595E-15
   10.6305895         2.39926127E-15
   10.7151184         3.74182607E-15
   10.7996464         5.04112209E-15
   10.8841753         6.19211493E-15
   10.9687033         7.08251088E-15
   11.0532322         7.60057910E-15
   11.1377602         7.64443762E-15
   11.2222891         7.13218936E-15
   11.3068171         6.01208316E-15
   11.3913460         4.27173284E-15
   11.4758739         1.94534944E-15
   11.5604029        -8.81986874E-16
   11.6449308        -4.07383376E-15
   11.7294598        -7.44623615E-15
   11.8139877        -1.07760963E-14
   11.8985167        -1.38138588E-14
   11.9830446        -1.62998548E-14
   12.0675735        -1.79832854E-14
   12.1521015        -1.86424650E-14
   12.2366304        -1.81048058E-14
   12.3211584        -1.62648571E-14
   12.4056873        -1.30988775E-14
   12.4902153        -8.67456944E-15
   12.5747442        -3.15490317E-15
   12.6592722         3.20452766E-15
   12.7438011         1.00648622E-14
   12.8283291         1.70197464E-14
   12.9128580         2.36167914E-14
   12.9973860         2.93836610E-14
   13.0819149         3.38574078E-14
   13.1664429         3.66154420E-14
   13.2509708         3.73064786E-14
   13.3354998         3.56795892E-14
   13.4200277         3.16097144E-14
   13.5045567         2.51178422E-14
   13.5890846         1.63843480E-14
   13.6736135         5.75409513E-15
   13.7581415        -6.26784222E-15
   13.8426704        -1.90306619E-14
   13.9271984        -3.17628512E-14
   14.0117273        -4.36076719E-14
   14.0962553        -5.36682481E-14
   14.1807842        -6.10608637E-14
   14.2653122        -6.49742372E-14
   14.3498411        -6.47317351E-14
   14.4343691        -5.98530150E-14
   14.5188980        -5.01108419E-14
   14.6034260        -3.55788092E-14
   14.6879549        -1.66655562E-14
   14.7724829         5.86869912E-15
   14.8570118         3.09161876E-14
   14.9415398         5.70487735E-14
   15.0260687         8.25689208E-14
   15.1105967         1.05583978E-13
   15.1951256         1.24101304E-13
   15.2796535         1.36140556E-13
   15.3641825         1.39858069E-13
   15.4487104         1.33677073E-13
   15.5332394         1.16416520E-13
   15.6177673         8.74115640E-14
   15.7022963         4.66186267E-14
   15.7868242        -5.30223143E-15
   15.8713531        -6.69331737E-14
   15.9558811        -1.36077632E-13
   16.0404091        -2.09776519E-13
   16.1249390        -2.84364275E-13
   16.2094669        -3.55565702E-13
   16.2939949        -4.18633552E-13
   16.3785229        -4.68525501E-13
   16.4630527        -5.00116767E-13
   16.5475807        -5.08444198E-13
   16.6321087        -4.88974746E-13
   16.7166367        -4.37889146E-13
   16.8011646        -3.52372808E-13
   16.8856945        -2.30897522E-13
   16.9702225        -7.34834895E-14
   17.0547504         1.18073899E-13
   17.1392784         3.40030087E-13
   17.2238083         5.86582920E-13
   17.3083363         8.49844446E-13
   17.3928642         1.11990452E-12
   17.4773922         1.38499542E-12
   17.5619221         1.63176037E-12
   17.6464500         1.84562825E-12
   17.7309780         2.01128784E-12
   17.8155060         2.11325250E-12
   17.9000359         2.13650495E-12
   17.9845638         2.06719928E-12
   18.0690918         1.89340145E-12
   18.1536198         1.60584664E-12
   18.2381496         1.19868416E-12
   18.3226776         6.70183256E-13
   18.4072056         2.33749347E-14
   18.4917336        -7.33409319E-13
   18.5762634        -1.58611861E-12
   18.6607914        -2.51472519E-12
   18.7453194        -3.49315368E-12
   18.8298473        -4.48942793E-12
   18.9143772        -5.46605903E-12
   18.9989052        -6.38070152E-12
   19.0834332        -7.18709510E-12
   19.1679611        -7.83630019E-12
   19.2524910        -8.27821926E-12
   19.3370190        -8.46340706E-12
   19.4215469        -8.34512234E-12
   19.5060749        -7.88158514E-12
   19.5906048        -7.03837336E-12
   19.6751328        -5.79088340E-12
   19.7596607        -4.12675449E-12
   19.8441887        -2.04814659E-12
   19.9287186         4.26242429E-13
   20.0132465         3.25954476E-12
   20.0977745         6.39560453E-12
   20.1823025         9.75849002E-12
   20.2668324         1.32527340E-11
   20.3513603         1.67644249E-11
   20.4358883         2.01631316E-11
   20.5204163         2.33048372E-11
   20.6049442         2.60357187E-11
   20.6894741         2.81968598E-11
   20.7740021         2.96297570E-11
   20.8585300         3.01825023E-11
   20.9430580         2.97165209E-11
   21.0275879         2.81135462E-11
   21.1121159         2.52827256E-11
   21.1966438         2.11674393E-11
   21.2811718         1.57516656E-11
   21.3657017         9.06544284E-12
   21.4502296         1.18920683E-12
   21.5347576        -7.74333028E-12
   21.6192856        -1.75440443E-11
   21.7038155        -2.79712312E-11
   21.7883434        -3.87325345E-11
   21.8728714        -4.94901134E-11
   21.9573994        -5.98681105E-11
   22.0419292        -6.94621652E-11
   22.1264572        -7.78510728E-11
   22.2109852        -8.46100898E-11
   22.2955132        -8.93256649E-11
   22.3800430        -9.16112186E-11
   22.4645710        -9.11232825E-11
   22.5490990        -8.75777159E-11
   22.6336269        -8.07652695E-11
   22.7181568        -7.05658726E-11
   22.8026848        -5.69611823E-11
   22.8872128        -4.00446412E-11
   22.9717407        -2.00287304E-11
   23.0562706         2.75126710E-12
   23.1407986         2.78373019E-11
   23.2253265         5.46526852E-11
   23.3098545         8.25105539E-11
   23.3943844         1.10626716E-10
   23.4789124         1.38136724E-10
   23.5634403         1.64117289E-10
   23.6479683         1.87611079E-10
   23.7324982         2.07654810E-10
   23.8170261         2.23310079E-10
   23.9015541         2.33695174E-10
   23.9860821         2.38018355E-10
   24.0706100         2.35610115E-10
   24.1551399         2.25954033E-10
   24.2396679         2.08715212E-10
   24.3241959         1.83764406E-10
   24.4087238         1.51197527E-10
   24.4932537         1.11349055E-10
   24.5777817         6.47987775E-11
   24.6623096         1.23710382E-11
   24.7468376        -4.48735805E-11
   24.8313675        -1.05654673E-10
   24.9158955        -1.68496175E-10
   25.0004234        -2.31757835E-10
   25.0849514        -2.93673280E-10
   25.1694813        -3.52394308E-10
   25.2540092        -4.06039258E-10
   25.3385372        -4.52745424E-10
   25.4230652        -4.90723073E-10
   25.5075951        -5.18309895E-10
   25.5921230        -5.34025157E-10
   25.6766510        -5.36619860E-10
   25.7611790        -5.25124333E-10
   25.8457088        -4.98889596E-10
   25.9302368        -4.57621524E-10
   26.0147648        -4.01407879E-10
   26.0992928        -3.30735744E-10
   26.1838226        -2.46499210E-10
   26.2683506        -1.49996918E-10
   26.3528786        -4.29184431E-11
   26.4374065         7.26797511E-11
   26.5219364         1.94409211E-10
   26.6064644         3.19594351E-10
   26.6909924         4.45326775E-10
   26.7755203         5.68527725E-10
   26.8600502         6.86017465E-10
   26.9445782         7.94589561E-10
   27.0291061         8.91089147E-10
   27.1136341         9.72492642E-10
   27.1981640         1.03598619E-09
   27.2826920         1.07904341E-09
   27.3672199         1.09949616E-09
   27.4517479         1.09560128E-09
   27.5362759         1.06609677E-09
   27.6208057         1.01025066E-09
   27.7053337         9.27897315E-10
   27.7898617         8.19461166E-10
   27.8743896         6.85969281E-10
   27.9589195         5.29049082E-10
   28.0434475         3.50913271E-10
   28.1279755         1.54330923E-10
   28.2125034        -5.74136086E-11
   28.2970333        -2.80574036E-10
   28.3815613        -5.11007514E-10
   28.4660892        -7.44247997E-10
   28.5506172        -9.75588943E-10
   28.6351471        -1.20017185E-09
   28.7196751        -1.41308021E-09
   28.8042030        -1.60943348E-09
   28.8887310        -1.78448512E-09
   28.9732609        -1.93371563E-09
   29.0577888        -2.05292472E-09
   29.1423168        -2.13831508E-09
   29.2268448        -2.18657270E-09
   29.3113747        -2.19493757E-09
   29.3959026        -2.16126450E-09
   29.4804306        -2.08407180E-09
   29.5649586        -1.96258476E-09
   29.6494884        -1.79675985E-09
   29.7340164        -1.58730518E-09
   29.8185444        -1.33568490E-09
   29.9030724        -1.04411280E-09
   29.9876022        -7.15538684E-10
   30.0721302        -3.53621632E-10
   30.1566582         3.73047461E-11
   30.2411861         4.52273552E-10
   30.3257160         8.85735763E-10
   30.4102440         1.33161615E-09
   30.4947720         1.78337378E-09
   30.5792999         2.23407093E-09
   30.6638298         2.67643907E-09
   30.7483578         3.10295700E-09
   30.8328857         3.50592488E-09
   30.9174137         3.87754495E-09
   31.0019417         4.21000301E-09
   31.0864716         4.49555948E-09
   31.1709995         4.72663730E-09
   31.2555275         4.89591612E-09
   31.3400555         4.99643882E-09
   31.4245853         5.02171371E-09
   31.5091133         4.96583485E-09
   31.5936413         4.82359841E-09
   31.6781693         4.59063454E-09
   31.7626991         4.26353841E-09
   31.8472271         3.84000920E-09
   31.9317551         3.31898731E-09
   32.0162849         2.70079559E-09
   32.1008110         1.98726635E-09
   32.1853409         1.18187093E-09
   32.2698708         2.89821889E-10
   32.3543968        -6.81833867E-10
   32.4389267        -1.72415382E-09
   32.5234528        -2.82626433E-09
   32.6079826        -3.97536404E-09
   32.6925125        -5.15676390E-09
   32.7770386        -6.35396757E-09
   32.8615685        -7.54880602E-09
   32.9460983        -8.72161454E-09
   33.0306244        -9.85144855E-09
   33.1151543        -1.09163629E-08
   33.1996803        -1.18937242E-08
   33.2842102        -1.27605642E-08
   33.3687401        -1.34939695E-08
   33.4532661        -1.40714995E-08
   33.5377960        -1.44716221E-08
   33.6223259        -1.46741748E-08
   33.7068520        -1.46607730E-08
   33.7913818        -1.44152841E-08
   33.8759079        -1.39242227E-08
   33.9604378        -1.31771039E-08
   34.0449677        -1.21667849E-08
   34.1294937        -1.08897318E-08
   34.2140236        -9.34620381E-09
   34.2985535        -7.54038432E-09
   34.3830795        -5.48040902E-09
   34.4676094        -3.17834270E-09
   34.5521355        -6.50048404E-10
   34.6366653         2.08500683E-09
   34.7211952         5.00400166E-09
   34.8057213         8.08110734E-09
   34.8902512         1.12878231E-08
   34.9747772         1.45933710E-08
   35.0593071         1.79650996E-08
   35.1438370         2.13688711E-08
   35.2283630         2.47694381E-08
   35.3128929         2.81307440E-08
   35.3974228         3.14161959E-08
   35.4819489         3.45888438E-08
   35.5664787         3.76115139E-08
   35.6510048         4.04467855E-08
   35.7355347         4.30569287E-08
   35.8200645         4.54037767E-08
   35.9045906         4.74484274E-08
   35.9891205         4.91509944E-08
   36.0736504         5.04702165E-08
   36.1581764         5.13631377E-08
   36.2427063         5.17846814E-08
   36.3272324         5.16874046E-08
   36.4117622         5.10212459E-08
   36.4962921         4.97334760E-08
   36.5808182         4.77687259E-08
   36.6653481         4.50692141E-08
   36.7498779         4.15754045E-08
   36.8344040         3.72266769E-08
   36.9189339         3.19625215E-08
   37.0034599         2.57239883E-08
   37.0879898         1.84554363E-08
   37.1725197         1.01067581E-08
   37.2570457         6.35763886E-10
   37.3415756        -9.98892524E-09
   37.4261055        -2.17847376E-08
   37.5106316        -3.47519240E-08
   37.5951614        -4.88698468E-08
   37.6796875        -6.40935056E-08
   37.7642174        -8.03497002E-08
   37.8487473        -9.75334515E-08
   37.9332733        -1.15504527E-07
   38.0178032        -1.34084246E-07
   38.1023293        -1.53052696E-07
   38.1868591        -1.72146400E-07
   38.2713890        -1.91056714E-07
   38.3559151        -2.09429132E-07
   38.4404449        -2.26862824E-07
   38.5249748        -2.42912392E-07
   38.6095009        -2.57089255E-07
   38.6940308        -2.68865534E-07
   38.7785568        -2.77678708E-07
   38.8630867        -2.82937492E-07
   38.9476166        -2.84029255E-07
   39.0321426        -2.80329459E-07
   39.1166725        -2.71211377E-07
   39.2012024        -2.56058485E-07
   39.2857285        -2.34277920E-07
   39.3702583        -2.05314691E-07
   39.4547844        -1.68668009E-07
   39.5393143        -1.23908478E-07
   39.6238441        -7.06962453E-08
   39.7083702        -8.80030715E-09
   39.7929001         6.18819840E-08
   39.8774300         1.41304227E-07
   39.9619560         2.29250645E-07
   40.0464859         3.25315114E-07
   40.1310120         4.28881009E-07
   40.2155418         5.39101734E-07
   40.3000717         6.54880523E-07
   40.3845978         7.74854470E-07
   40.4691277         8.97376083E-07
   40.5536575         1.02050080E-06
   40.6381836         1.14197269E-06
   40.7227135         1.25921758E-06
   40.8072395         1.36933215E-06
   40.8917694         1.46908462E-06
   40.9762993         1.55491068E-06
   41.0608253         1.62292031E-06
   41.1453552         1.66890356E-06
   41.2298851         1.68834185E-06
   41.3144112         1.67642827E-06
   41.3989410         1.62808328E-06
   41.4834671         1.53798578E-06
   41.5679970         1.40059922E-06
   41.6525269         1.21021151E-06
   41.7370529         9.60969601E-07
   41.8215828         6.46929493E-07
   41.9061089         2.62100315E-07
   41.9906387        -1.99502367E-07
   42.0751686        -7.43797614E-07
   42.1596947        -1.37658435E-06
   42.2442245        -2.10347594E-06
   42.3287544        -2.92984419E-06
   42.4132805        -3.86074316E-06
   42.4978104        -4.90085949E-06
   42.5823364        -6.05444029E-06
   42.6668663        -7.32522722E-06
   42.7513962        -8.71640077E-06
   42.8359222        -1.02305321E-05
   42.9204521        -1.18695061E-05
   43.0049820        -1.36345134E-05
   43.0895081        -1.55259368E-05
   43.1740379        -1.75434052E-05
   43.2585640        -1.96856909E-05
   43.3430939        -2.19507310E-05
   43.4276237        -2.43355862E-05
   43.5121498        -2.68364511E-05
   43.5966797        -2.94486617E-05
   43.6812096        -3.21667103E-05
   43.7657356        -3.49842303E-05
   43.8502655        -3.78940931E-05
   43.9347916        -4.08884043E-05
   44.0193214        -4.39585456E-05
   44.1038513        -4.70952691E-05
   44.1883774        -5.02887415E-05
   44.2729073        -5.35286199E-05
   44.3574371        -5.68041214E-05
   44.4419632        -6.01040956E-05
   44.5264931        -6.34171738E-05
   44.6110191        -6.67317654E-05
   44.6955490        -7.00362507E-05
   44.7800789        -7.33189372E-05
   44.8646049        -7.65683653E-05
   44.9491348        -7.97731118E-05
   45.0336647        -8.29221826E-05
   45.1181908        -8.60048312E-05
   45.2027206        -8.90108204E-05
   45.2872467        -9.19304075E-05
   45.3717766        -9.47544613E-05
   45.4563065        -9.74744180E-05
   45.5408325        -1.00082558E-04
   45.6253624        -1.02571750E-04
   45.7098885        -1.04935760E-04
   45.7944183        -1.07169064E-04
   45.8789482        -1.09267050E-04
   45.9634743        -1.11225883E-04
   46.0480042        -1.13042654E-04
   46.1325340        -1.14715185E-04
   46.2170601        -1.16242198E-04
   46.3015900        -1.17623233E-04
   46.3861160        -1.18858559E-04
   46.4706459        -1.19949218E-04
   46.5551758        -1.20896992E-04
   46.6397018        -1.21704332E-04
   46.7242317        -1.22374273E-04
   46.8087616        -1.22910482E-04
   46.8932877        -1.23317179E-04
   46.9778175        -1.23598991E-04
   47.0623436        -1.23761041E-04
   47.1468735        -1.23808786E-04
   47.2314034        -1.23748090E-04
   47.3159294        -1.23584978E-04
   47.4004593        -1.23325779E-04
   47.4849892        -1.22976984E-04
   47.5695152        -1.22545185E-04
   47.6540451        -1.22037083E-04
   47.7385712        -1.21459423E-04
   47.8231010        -1.20818921E-04
   47.9076309        -1.20122328E-04
   47.9921570        -1.19376236E-04
   48.0766869        -1.18587159E-04
   48.1612167        -1.17761556E-04
   48.2457428        -1.16905656E-04
   48.3302727        -1.16025534E-04
   48.4147987        -1.15127070E-04
   48.4993286        -1.14215945E-04
   48.5838585        -1.13297545E-04
   48.6683846        -1.12377107E-04
   48.7529144        -1.11459529E-04
   48.8374405        -1.10549474E-04
   48.9219704        -1.09651366E-04
   49.0065002        -1.08769338E-04
   49.0910263        -1.07907210E-04
   49.1755562        -1.07068568E-04
   49.2600861        -1.06256703E-04
   49.3446121        -1.05474661E-04
   49.4291420        -1.04725143E-04
   49.5136681        -1.04010658E-04
   49.5981979        -1.03333368E-04
   49.6827278        -1.02695303E-04
   49.7672539        -1.02098085E-04
   49.8517838        -1.01543228E-04
   49.9363136        -1.01031910E-04
   50.0208397        -1.00565121E-04
   50.1053696        -1.00143654E-04
   50.1898956        -9.97680181E-05
   50.2744255        -9.94386210E-05
   50.3589554        -9.91555935E-05
   50.4434814        -9.89188993E-05
   50.5280113        -9.87283202E-05
   50.6125412        -9.85835213E-05
   50.6970673        -9.84839426E-05
   50.7815971        -9.84289509E-05
   50.8661232        -9.84176950E-05
   50.9506531        -9.84492726E-05
   51.0351830        -9.85226143E-05
   51.1197090        -9.86365994E-05
   51.2042389        -9.87899402E-05
   51.2887688        -9.89813343E-05
   51.3732948        -9.92093701E-05
   51.4578247        -9.94725706E-05
   51.5423508        -9.97694224E-05
   51.6268806        -1.00098405E-04
   51.7114105        -1.00457939E-04
   51.7959366        -1.00846410E-04
   51.8804665        -1.01262260E-04
   51.9649963        -1.01703939E-04
   52.0495224        -1.02169870E-04
   52.1340523        -1.02658552E-04
   52.2185783        -1.03168502E-04
   52.3031082        -1.03698381E-04
   52.3876381        -1.04246756E-04
   52.4721642        -1.04812425E-04
   52.5566940        -1.05394167E-04
   52.6412201        -1.05990861E-04
   52.7257500        -1.06601488E-04
   52.8102798        -1.07225133E-04
   52.8948059        -1.07860869E-04
   52.9793358        -1.08507957E-04
   53.0638657        -1.09165681E-04
   53.1483917        -1.09833403E-04
   53.2329216        -1.10510526E-04
   53.3174477        -1.11196518E-04
   53.4019775        -1.11890862E-04
   53.4865074        -1.12593094E-04
   53.5710335        -1.13302718E-04
   53.6555634        -1.14019225E-04
   53.7400932        -1.14742128E-04
   53.8246193        -1.15470859E-04
   53.9091492        -1.16204763E-04
   53.9936752        -1.16943222E-04
   54.0782051        -1.17685398E-04
   54.1627350        -1.18430478E-04
   54.2472610        -1.19177428E-04
   54.3317909        -1.19925193E-04
   54.4163208        -1.20672579E-04
   54.5008469        -1.21418183E-04
   54.5853767        -1.22160593E-04
   54.6699028        -1.22898244E-04
   54.7544327        -1.23629419E-04
   54.8389626        -1.24352300E-04
   54.9234886        -1.25065082E-04
   55.0080185        -1.25765684E-04
   55.0925484        -1.26452069E-04
   55.1770744        -1.27122170E-04
   55.2616043        -1.27773819E-04
   55.3461304        -1.28404834E-04
   55.4306602        -1.29013075E-04
   55.5151901        -1.29596374E-04
   55.5997162        -1.30152635E-04
   55.6842461        -1.30679764E-04
   55.7687759        -1.31175781E-04
   55.8533020        -1.31638764E-04
   55.9378319        -1.32066882E-04
   56.0223579        -1.32458488E-04
   56.1068878        -1.32811925E-04
   56.1914177        -1.33125810E-04
   56.2759438        -1.33398804E-04
   56.3604736        -1.33629743E-04
   56.4449997        -1.33817593E-04
   56.5295296        -1.33961526E-04
   56.6140594        -1.34060843E-04
   56.6985855        -1.34114962E-04
   56.7831154        -1.34123518E-04
   56.8676453        -1.34086324E-04
   56.9521713        -1.34003261E-04
   57.0367012        -1.33874535E-04
   57.1212273        -1.33700349E-04
   57.2057571        -1.33481211E-04
   57.2902870        -1.33217836E-04
   57.3748131        -1.32911053E-04
   57.4593430        -1.32561952E-04
   57.5438728        -1.32171845E-04
   57.6283989        -1.31742287E-04
   57.7129288        -1.31275054E-04
   57.7974548        -1.30772183E-04
   57.8819847        -1.30236047E-04
   57.9665146        -1.29669177E-04
   58.0510406        -1.29074557E-04
   58.1355705        -1.28455285E-04
   58.2201004        -1.27814928E-04
   58.3046265        -1.27157211E-04
   58.3891563        -1.26486237E-04
   58.4736824        -1.25806313E-04
   58.5582123        -1.25122082E-04
   58.6427422        -1.24438331E-04
   58.7272682        -1.23760139E-04
   58.8117981        -1.23092657E-04
   58.8963280        -1.22441168E-04
   58.9808540        -1.21811114E-04
   59.0653839        -1.21207835E-04
   59.1499100        -1.20636680E-04
   59.2344398        -1.20102864E-04
   59.3189697        -1.19611352E-04
   59.4034958        -1.19166943E-04
   59.4880257        -1.18774027E-04
   59.5725517        -1.18436590E-04
   59.6570816        -1.18158110E-04
   59.7416115        -1.17941549E-04
   59.8261375        -1.17789190E-04
   59.9106674        -1.17702664E-04
   59.9951973        -1.17682823E-04
   60.0797234        -1.17729738E-04
   60.1642532        -1.17842690E-04
   60.2487793        -1.18020071E-04
   60.3333092        -1.18259435E-04
   60.4178391        -1.18557437E-04
   60.5023651        -1.18909942E-04
   60.5868950        -1.19311902E-04
   60.6714249        -1.19757555E-04
   60.7559509        -1.20240336E-04
   60.8404808        -1.20753073E-04
   60.9250069        -1.21287892E-04
   61.0095367        -1.21836492E-04
   61.0940666        -1.22390033E-04
   61.1785927        -1.22939440E-04
   61.2631226        -1.23475373E-04
   61.3476524        -1.23988342E-04
   61.4321785        -1.24468934E-04
   61.5167084        -1.24907805E-04
   61.6012344        -1.25295890E-04
   61.6857643        -1.25624400E-04
   61.7702942        -1.25885126E-04
   61.8548203        -1.26070343E-04
   61.9393501        -1.26173094E-04
   62.0238800        -1.26187064E-04
   62.1084061        -1.26106941E-04
   62.1929359        -1.25928273E-04
   62.2774620        -1.25647653E-04
   62.3619919        -1.25262770E-04
   62.4465218        -1.24772312E-04
   62.5310478        -1.24176222E-04
   62.6155777        -1.23475649E-04
   62.7001076        -1.22672849E-04
   62.7846336        -1.21771329E-04
   62.8691635        -1.20775803E-04
   62.9536896        -1.19692144E-04
   63.0382195        -1.18527365E-04
   63.1227493        -1.17289608E-04
   63.2072754        -1.15988114E-04
   63.2918053        -1.14633091E-04
   63.3763313        -1.13235794E-04
   63.4608612        -1.11808251E-04
   63.5453911        -1.10363377E-04
   63.6299171        -1.08914828E-04
   63.7144470        -1.07476837E-04
   63.7989769        -1.06064203E-04
   63.8835030        -1.04692197E-04