  -4.50000000         0.00000000    
  -4.41547155         0.00000000    
  -4.33094311         0.00000000    
  -4.24641466         0.00000000    
  -4.16188622         0.00000000    
  -4.07735777         0.00000000    
  -3.99282932         0.00000000    
  -3.90830088         0.00000000    
  -3.82377243         0.00000000    
  -3.73924398         0.00000000    
  -3.65471554         0.00000000    
  -3.57018733         0.00000000    
  -3.48565888         0.00000000    
  -3.40113044         0.00000000    
  -3.31660199         7.56709508E-35
  -3.23207355         7.67065624E-35
  -3.14754510        -6.63129654E-34
  -3.06301665        -3.88348399E-33
  -2.97848821        -1.27673924E-32
  -2.89395976        -3.20770191E-32
  -2.80943131         1.24659145E-30
  -2.72490287         7.68691228E-30
  -2.64037442         2.81539180E-29
  -2.55584598         7.66618280E-29
  -2.47131753         1.67347423E-28
  -2.38678908         3.23744563E-28
  -2.30226064         5.57191033E-28
  -2.21773219         8.33288450E-28
  -2.13320374         1.03007429E-27
  -2.04867530         8.78997604E-28
  -1.96414697        -9.04568309E-29
  -1.87961853        -2.53523987E-27
  -1.79509008        -7.16624666E-27
  -1.71056163        -1.44129510E-26
  -1.62603319        -2.38360254E-26
  -1.54150474        -3.33061357E-26
  -1.45697629        -3.81397022E-26
  -1.37244797        -3.05508172E-26
  -1.28791952         1.17238495E-29
  -1.20339108         6.50090350E-26
  -1.11886263         1.72947498E-25
  -1.03433418         3.23482965E-25
 -0.949805737         5.00261320E-25
 -0.865277290         6.64242428E-25
 -0.780748844         7.50167327E-25
 -0.696220458         6.69294934E-25
 -0.611692011         3.21247826E-25
 -0.527163565        -3.83453009E-25
 -0.442635119        -1.49073609E-24
 -0.358106703        -2.96351120E-24
 -0.273578256        -4.64161891E-24
 -0.189049825        -6.21007240E-24
 -0.104521386        -7.18681946E-24
  -1.99929532E-02    -6.94304014E-24
   6.45354837E-02    -4.77044266E-24
  0.149063915        -9.91677968E-27
  0.233592346         7.74746685E-24
  0.318120778         1.83858691E-23
  0.402649224         3.09357484E-23
  0.487177670         4.32431081E-23
  0.571706116         5.17345174E-23
  0.656234503         5.14252113E-23
  0.740762949         3.63538880E-23
  0.825291395         6.29759444E-25
  0.909819841        -5.97871874E-23
  0.994348288        -1.44602054E-22
   1.07887673        -2.46270131E-22
   1.16340518        -3.47247079E-22
   1.24793363        -4.18329884E-22
   1.33246195        -4.19274472E-22
   1.41699040        -3.02928848E-22
   1.50151885        -2.38375559E-23
   1.58604729         4.48434128E-22
   1.67057574         1.11217200E-21
   1.75510418         1.91502369E-21
   1.83963263         2.73825459E-21
   1.92416108         3.38925462E-21
   2.00868940         3.60849505E-21
   2.09321785         3.09654436E-21
   2.17774630         1.56455478E-21
   2.26227474        -1.19249344E-21
   2.34680319        -5.20620409E-21
   2.43133163        -1.02420308E-20
   2.51586008        -1.57231266E-20
   2.60038853        -2.06953642E-20
   2.68491697        -2.38592929E-20
   2.76944542        -2.36908906E-20
   2.85397387        -1.86625242E-20
   2.93850231        -7.55850340E-21
   3.02303076         1.01424161E-20
   3.10755920         3.38703190E-20
   3.19208765         6.16288654E-20
   3.27661610         8.98125632E-20
   3.36114454         1.13271270E-19
   3.44567299         1.25700098E-19
   3.53020120         1.20397327E-19
   3.61472964         9.13746550E-20
   3.69925809         3.47307839E-20
   3.78378654        -4.98818376E-20
   3.86831498        -1.57941220E-19
   3.95284343        -2.79186356E-19
   4.03737211        -3.97500067E-19
   4.12190056        -4.91804524E-19
   4.20642900        -5.38124467E-19
   4.29095745        -5.12804417E-19
   4.37548542        -3.96650475E-19
   4.46001387        -1.79531332E-19
   4.54454231         1.35234427E-19
   4.62907076         5.27544569E-19
   4.71359921         9.59095034E-19
   4.79812765         1.37464762E-18
   4.88265610         1.70647453E-18
   4.96718454         1.88204207E-18
   5.05171299         1.83443679E-18
   5.13624144         1.51444941E-18
   5.22076988         9.02661464E-19
   5.30529833         1.94970946E-20
   5.38982677        -1.06892766E-18
   5.47435522        -2.25109738E-18
   5.55888367        -3.37784931E-18
   5.64341211        -4.27792005E-18
   5.72794056        -4.78033838E-18
   5.81246901        -4.74136081E-18
   5.89699745        -4.07237435E-18
   5.98152590        -2.76431353E-18
   6.06605434        -9.03777537E-19
   6.15058279         1.32343811E-18
   6.23511124         3.64444983E-18
   6.31963968         5.72801150E-18
   6.40416813         7.22813415E-18
   6.48869658         7.83821376E-18
   6.57322502         7.34844757E-18
   6.65775347         5.69759566E-18
   6.74228191         3.00950599E-18
   6.82681036        -3.94587434E-19
   6.91133881        -4.01435508E-18
   6.99586725        -7.22175907E-18
   7.08039570        -9.34313985E-18
   7.16492414        -9.76395475E-18
   7.24945259        -8.04353902E-18
   7.33398104        -4.02290481E-18
   7.41850948         2.09221687E-18
   7.50303793         9.69088410E-18
   7.58756638         1.77717455E-17
   7.67209482         2.50205013E-17
   7.75662327         2.99481568E-17
   7.84115171         3.10790980E-17
   7.92567968         2.71695198E-17
   8.01020813         1.74292034E-17
   8.09473705         1.71629823E-18
   8.17926502        -1.93246183E-17
   8.26379395        -4.42078274E-17
   8.34832191        -7.06506211E-17
   8.43285084        -9.57224919E-17
   8.51737881        -1.16090511E-16
   8.60190773        -1.28340447E-16
   8.68643570        -1.29341640E-16
   8.77096462        -1.16617312E-16
   8.85549259        -8.86805512E-17
   8.94002151        -4.52986503E-17
   9.02454948         1.23426134E-17
   9.10907841         8.15905148E-17
   9.19360638         1.58400032E-16
   9.27813530         2.37518891E-16
   9.36266327         3.12769007E-16
   9.44719219         3.77397621E-16
   9.53172016         4.24472800E-16
   9.61624908         4.47302376E-16
   9.70077705         4.39857354E-16
   9.78530502         3.97191616E-16
   9.86983395         3.15851201E-16
   9.95436192         1.94274127E-16
   10.0388908         3.31749023E-17
   10.1234188        -1.64095653E-16
   10.2079477        -3.91235677E-16
   10.2924757        -6.38759880E-16
   10.3770046        -8.93892822E-16
   10.4615326        -1.14064591E-15
   10.5460615        -1.36013861E-15
   10.6305895        -1.53121333E-15
   10.7151184        -1.63138323E-15
   10.7996464        -1.63812731E-15
   10.8841753        -1.53050457E-15
   10.9687033        -1.29104328E-15
   11.0532322        -9.07789138E-16
   11.1377602        -3.76392351E-16
   11.2222891         2.97932113E-16
   11.3068171         1.09875452E-15
   11.3913460         1.99728654E-15
   11.4758739         2.95191067E-15
   11.5604029         3.90855646E-15
   11.6449308         4.80203307E-15
   11.7294598         5.55841019E-15
   11.8139877         6.09843224E-15
   11.8985167         6.34193346E-15
   11.9830446         6.21307561E-15
   12.0675735         5.64624624E-15
   12.1521015         4.59225858E-15
   12.2366304         3.02455581E-15
   12.3211584         9.44940639E-16
   12.4056873        -1.61155504E-15
   12.4902153        -4.57313300E-15
   12.5747442        -7.82945418E-15
   12.6592722        -1.12319635E-14
   12.7438011        -1.45966003E-14
   12.8283291        -1.77090788E-14
   12.9128580        -2.03327023E-14
   12.9973860        -2.22187211E-14
   13.0819149        -2.31188614E-14
   13.1664429        -2.27997298E-14
   13.2509708        -2.10585537E-14
   13.3354998        -1.77396245E-14
   13.4200277        -1.27507342E-14
   13.5045567        -6.07881877E-15
   13.5890846         2.19616289E-15
   13.6736135         1.18899133E-14
   13.7581415         2.27061801E-14
   13.8426704         3.42337446E-14
   13.9271984         4.59490437E-14
   14.0117273         5.72253087E-14
   14.0962553         6.73489313E-14
   14.1807842         7.55436363E-14
   14.2653122         8.10025603E-14
   14.3498411         8.29279001E-14
   14.4343691         8.05774379E-14
   14.5188980         7.33161836E-14
   14.6034260         6.06713979E-14
   14.6879549         4.23878055E-14
   14.7724829         1.84798161E-14
   14.8570118        -1.07229585E-14
   14.9415398        -4.45412987E-14
   15.0260687        -8.19268088E-14
   15.1105967        -1.21461015E-13
   15.1951256        -1.61376080E-13
   15.2796535        -1.99599126E-13
   15.3641825        -2.33821046E-13
   15.4487104        -2.61588765E-13
   15.5332394        -2.80418077E-13
   15.6177673        -2.87924171E-13
   15.7022963        -2.81962387E-13
   15.7868242        -2.60773635E-13
   15.8713531        -2.23126584E-13
   15.9558811        -1.68447355E-13
   16.0404091        -9.69302560E-14
   16.1249390        -9.62120161E-15
   16.2094669         9.15329282E-14
   16.2939949         2.03672108E-13
   16.3785229         3.23053081E-13
   16.4630527         4.45121885E-13
   16.5475807         5.64628747E-13
   16.6321087         6.75783051E-13
   16.7166367         7.72445367E-13
   16.8011646         8.48351825E-13
   16.8856945         8.97364431E-13
   16.9702225         9.13741088E-13
   17.0547504         8.92418409E-13
   17.1392784         8.29296592E-13
   17.2238083         7.21520174E-13
   17.3083363         5.67740679E-13
   17.3928642         3.68352701E-13
   17.4773922         1.25688305E-13
   17.5619221        -1.55840510E-13
   17.6464500        -4.69665539E-13
   17.7309780        -8.07063672E-13
   17.8155060        -1.15724661E-12
   17.9000359        -1.50754539E-12
   17.9845638        -1.84369880E-12
   18.0690918        -2.15023897E-12
   18.1536198        -2.41097507E-12
   18.2381496        -2.60956426E-12
   18.3226776        -2.73015725E-12
   18.4072056        -2.75809280E-12
   18.4917336        -2.68062699E-12
   18.5762634        -2.48766459E-12
   18.6607914        -2.17246230E-12
   18.7453194        -1.73227827E-12
   18.8298473        -1.16893539E-12
   18.9143772        -4.89265475E-13
   18.9989052         2.94592475E-13
   19.0834332         1.16506522E-12
   19.1679611         2.09920449E-12
   19.2524910         3.06896804E-12
   19.3370190         4.04171531E-12
   19.4215469         4.98093754E-12
   19.5060749         5.84721247E-12
   19.5906048         6.59938033E-12
   19.6751328         7.19591617E-12
   19.7596607         7.59647987E-12
   19.8441887         7.76359359E-12
   19.9287186         7.66440730E-12
   20.0132465         7.27247689E-12
   20.0977745         6.56951793E-12
   20.1823025         5.54702118E-12
   20.2668324         4.20766330E-12
   20.3513603         2.56645464E-12
   20.4358883         6.51488087E-13
   20.5204163        -1.49572878E-12
   20.6049442        -3.82045827E-12
   20.6894741        -6.25547400E-12
   20.7740021        -8.72239520E-12
   20.8585300        -1.11335854E-11
   20.9430580        -1.33946595E-11
   21.0275879        -1.54074739E-11
   21.1121159        -1.70736064E-11
   21.1966438        -1.82981425E-11
   21.2811718        -1.89937059E-11
   21.3657017        -1.90845274E-11
   21.4502296        -1.85104883E-11
   21.5347576        -1.72308279E-11
   21.6192856        -1.52274669E-11
   21.7038155        -1.25077396E-11
   21.7883434        -9.10635716E-12
   21.8728714        -5.08644906E-12
   21.9573994        -5.39691501E-13
   22.0419292         4.41474244E-12
   22.1264572         9.63235828E-12
   22.2109852         1.49466082E-11
   22.2955132         2.01733890E-11
   22.3800430         2.51164870E-11
   22.4645710         2.95740411E-11
   22.5490990         3.33457324E-11
   22.6336269         3.62405175E-11
   22.7181568         3.80846431E-11
   22.8026848         3.87297486E-11
   22.8872128         3.80604957E-11
   22.9717407         3.60016773E-11
   23.0562706         3.25242819E-11
   23.1407986         2.76502345E-11
   23.2253265         2.14554919E-11
   23.3098545         1.40713153E-11
   23.3943844         5.68350748E-12
   23.4789124        -3.47067926E-12
   23.5634403        -1.31076573E-11
   23.6479683        -2.29049401E-11
   23.7324982        -3.25106296E-11
   23.8170261        -4.15544994E-11
   23.9015541        -4.96608935E-11
   23.9860821        -5.64625430E-11
   24.0706100        -6.16150395E-11
   24.1551399        -6.48114201E-11
   24.2396679        -6.57966182E-11
   24.3241959        -6.43805842E-11
   24.4087238        -6.04501796E-11
   24.4932537        -5.39788457E-11
   24.5777817        -4.50338516E-11
   24.6623096        -3.37805235E-11
   24.7468376        -2.04830423E-11
   24.8313675        -5.50171757E-12
   24.9158955         1.07135776E-11
   25.0004234         2.76335257E-11
   25.0849514         4.46635541E-11
   25.1694813         6.11611456E-11
   25.2540092         7.64562094E-11
   25.3385372         8.98742261E-11
   25.4230652         1.00760726E-10
   25.5075951         1.08507384E-10
   25.5921230         1.12577683E-10
   25.6766510         1.12532358E-10
   25.7611790         1.08052456E-10
   25.8457088         9.89601942E-11
   25.9302368         8.52351800E-11
   26.0147648         6.70269742E-11
   26.0992928         4.46615939E-11
   26.1838226         1.86417947E-11
   26.2683506        -1.03580729E-11
   26.3528786        -4.15049384E-11
   26.4374065        -7.38253833E-11
   26.5219364        -1.06230955E-10
   26.6064644        -1.37548417E-10
   26.6909924        -1.66555339E-10
   26.7755203        -1.92019470E-10
   26.8600502        -2.12740631E-10
   26.9445782        -2.27594193E-10
   27.0291061        -2.35574865E-10
   27.1136341        -2.35839043E-10
   27.1981640        -2.27744032E-10
   27.2826920        -2.10884074E-10
   27.3672199        -1.85119572E-10
   27.4517479        -1.50600615E-10
   27.5362759        -1.07781582E-10
   27.6208057        -5.74273649E-11
   27.7053337        -6.09608826E-13
   27.7898617         6.13077922E-11
   27.8743896         1.26692171E-10
   27.9589195         1.93678629E-10
   28.0434475         2.60213406E-10
   28.1279755         3.24108934E-10
   28.2125034         3.83104937E-10
   28.2970333         4.34937253E-10
   28.3815613         4.77410389E-10
   28.4660892         5.08471931E-10
   28.5506172         5.26287625E-10
   28.6351471         5.29314204E-10
   28.7196751         5.16366117E-10
   28.8042030         4.86674812E-10
   28.8887310         4.39938752E-10
   28.9732609         3.76359971E-10
   29.0577888         2.96668495E-10
   29.1423168         2.02128453E-10
   29.2268448         9.45307166E-11
   29.3113747        -2.38340077E-11
   29.3959026        -1.50218712E-10
   29.4804306        -2.81477563E-10
   29.5649586        -4.14142387E-10
   29.6494884        -5.44510714E-10
   29.7340164        -6.68745503E-10
   29.8185444        -7.82983123E-10
   29.9030724        -8.83447038E-10
   29.9876022        -9.66564717E-10
   30.0721302        -1.02908071E-09
   30.1566582        -1.06816600E-09
   30.2411861        -1.08151710E-09
   30.3257160        -1.06744158E-09
   30.4102440        -1.02492859E-09
   30.4947720        -9.53698676E-10
   30.5792999        -8.54231907E-10
   30.6638298        -7.27770066E-10
   30.7483578        -5.76298786E-10
   30.8328857        -4.02498507E-10
   30.9174137        -2.09674833E-10
   31.0019417        -1.66631433E-12
   31.0864716         2.17267621E-10
   31.1709995         4.42574838E-10
   31.2555275         6.69549083E-10
   31.3400555         8.93472185E-10
   31.4245853         1.10975451E-09
   31.5091133         1.31407474E-09
   31.5936413         1.50249324E-09
   31.6781693         1.67155756E-09
   31.7626991         1.81837512E-09
   31.8472271         1.94065719E-09
   31.9317551         2.03672967E-09
   32.0162849         2.10550843E-09
   32.1008110         2.14643636E-09
   32.1853409         2.15939133E-09
   32.2698708         2.14455453E-09
   32.3543968         2.10226370E-09
   32.4389267         2.03283723E-09
   32.5234528         1.93639460E-09
   32.6079826         1.81267801E-09
   32.6925125         1.66087810E-09
   32.7770386         1.47949153E-09
   32.8615685         1.26620536E-09
   32.9460983         1.01783493E-09
   33.0306244         7.30314642E-10
   33.1151543         3.98763828E-10
   33.1996803         1.76072178E-11
   33.2842102        -4.19195234E-10
   33.3687401        -9.17862120E-10
   33.4532661        -1.48440826E-09
   33.5377960        -2.12419682E-09
   33.6223259        -2.84142998E-09
   33.7068520        -3.63854080E-09
   33.7913818        -4.51563009E-09
   33.8759079        -5.46980683E-09
   33.9604378        -6.49457110E-09
   34.0449677        -7.57922258E-09
   34.1294937        -8.70833450E-09
   34.2140236        -9.86130377E-09
   34.2985535        -1.10120251E-08
   34.3830795        -1.21287069E-08
   34.4676094        -1.31738753E-08
   34.5521355        -1.41045540E-08
   34.6366653        -1.48726809E-08
   34.7211952        -1.54257460E-08
   34.8057213        -1.57076787E-08
   34.8902512        -1.56599889E-08
   34.9747772        -1.52231205E-08
   35.0593071        -1.43380614E-08
   35.1438370        -1.29481581E-08
   35.2283630        -1.10010854E-08
   35.3128929        -8.45096704E-09
   35.3974228        -5.26060973E-09
   35.4819489        -1.40375844E-09
   35.5664787         3.13267789E-09
   35.6510048         8.34645686E-09
   35.7355347         1.42179406E-08
   35.8200645         2.07083666E-08
   35.9045906         2.77582295E-08
   35.9891205         3.52861775E-08
   36.0736504         4.31881482E-08
   36.1581764         5.13371425E-08
   36.2427063         5.95833249E-08
   36.3272324         6.77548471E-08
   36.4117622         7.56591731E-08
   36.4962921         8.30850624E-08
   36.5808182         8.98051411E-08
   36.6653481         9.55790824E-08
   36.7498779         1.00157493E-07
   36.8344040         1.03286297E-07
   36.9189339         1.04711695E-07
   37.0034599         1.04185595E-07
   37.0879898         1.01471542E-07
   37.1725197         9.63508739E-08
   37.2570457         8.86292568E-08
   37.3415756         7.81432945E-08
   37.4261055         6.47672351E-08
   37.5106316         4.84195226E-08
   37.5951614         2.90693176E-08
   37.6796875         6.74243816E-09
   37.7642174        -1.84728837E-08
   37.8487473        -4.64211318E-08
   37.9332733        -7.68751747E-08
   38.0178032        -1.09532870E-07
   38.1023293        -1.44014763E-07
   38.1868591        -1.79862880E-07
   38.2713890        -2.16540698E-07
   38.3559151        -2.53434933E-07
   38.4404449        -2.89857837E-07
   38.5249748        -3.25052639E-07
   38.6095009        -3.58198832E-07
   38.6940308        -3.88420716E-07
   38.7785568        -4.14796887E-07
   38.8630867        -4.36371778E-07
   38.9476166        -4.52168848E-07
   39.0321426        -4.61205701E-07
   39.1166725        -4.62510684E-07
   39.2012024        -4.55141389E-07
   39.2857285        -4.38204438E-07
   39.3702583        -4.10876737E-07
   39.4547844        -3.72427934E-07
   39.5393143        -3.22243636E-07
   39.6238441        -2.59849827E-07
   39.7083702        -1.84937250E-07
   39.7929001        -9.73860850E-08
   39.8774300         2.70917733E-09
   39.9619560         1.15016157E-07
   40.0464859         2.38940800E-07
   40.1310120         3.73606042E-07
   40.2155418         5.17831666E-07
   40.3000717         6.70115867E-07
   40.3845978         8.28619932E-07
   40.4691277         9.91155730E-07
   40.5536575         1.15517582E-06
   40.6381836         1.31776858E-06
   40.7227135         1.47565606E-06
   40.8072395         1.62519632E-06
   40.8917694         1.76239189E-06
   40.9762993         1.88289903E-06
   41.0608253         1.98204907E-06
   41.1453552         2.05486572E-06
   41.2298851         2.09609402E-06
   41.3144112         2.10023404E-06
   41.3989410         2.06157438E-06
   41.4834671         1.97423742E-06
   41.5679970         1.83222130E-06
   41.6525269         1.62945503E-06
   41.7370529         1.35984760E-06
   41.8215828         1.01734940E-06
   41.9061089         5.96009954E-07
   41.9906387         9.00396202E-08
   42.0751686        -5.06123342E-07
   42.1596947        -1.19775075E-06
   42.2442245        -1.98975704E-06
   42.3287544        -2.88663841E-06
   42.4132805        -3.89240131E-06
   42.4978104        -5.01051181E-06
   42.5823364        -6.24383028E-06
   42.6668663        -7.59455088E-06
   42.7513962        -9.06415517E-06
   42.8359222        -1.06533753E-05
   42.9204521        -1.23621248E-05
   43.0049820        -1.41895052E-05
   43.0895081        -1.61337102E-05
   43.1740379        -1.81920841E-05
   43.2585640        -2.03610361E-05
   43.3430939        -2.26360844E-05
   43.4276237        -2.50118101E-05
   43.5121498        -2.74819049E-05
   43.5966797        -3.00391603E-05
   43.6812096        -3.26755180E-05
   43.7657356        -3.53820542E-05
   43.8502655        -3.81490936E-05
   43.9347916        -4.09661880E-05
   44.0193214        -4.38222014E-05
   44.1038513        -4.67053833E-05
   44.1883774        -4.96034299E-05
   44.2729073        -5.25035357E-05
   44.3574371        -5.53925420E-05
   44.4419632        -5.82569191E-05
   44.5264931        -6.10829884E-05
   44.6110191        -6.38568963E-05
   44.6955490        -6.65648186E-05
   44.7800789        -6.91929381E-05
   44.8646049        -7.17277289E-05
   44.9491348        -7.41558106E-05
   45.0336647        -7.64643119E-05
   45.1181908        -7.86407545E-05
   45.2027206        -8.06732787E-05
   45.2872467        -8.25506868E-05
   45.3717766        -8.42625741E-05
   45.4563065        -8.57993073E-05
   45.5408325        -8.71522861E-05
   45.6253624        -8.83137836E-05
   45.7098885        -8.92772005E-05
   45.7944183        -9.00369923E-05
   45.8789482        -9.05888010E-05
   45.9634743        -9.09293885E-05
   46.0480042        -9.10568124E-05
   46.1325340        -9.09702285E-05
   46.2170601        -9.06700807E-05
   46.3015900        -9.01580279E-05
   46.3861160        -8.94368350E-05
   46.4706459        -8.85104964E-05
   46.5551758        -8.73840836E-05
   46.6397018        -8.60637811E-05
   46.7242317        -8.45566974E-05
   46.8087616        -8.28709599E-05
   46.8932877        -8.10155689E-05
   46.9778175        -7.90002669E-05
   47.0623436        -7.68355821E-05
   47.1468735        -7.45326033E-05
   47.2314034        -7.21030374E-05
   47.3159294        -6.95589551E-05
   47.4004593        -6.69128422E-05
   47.4849892        -6.41774241E-05
   47.5695152        -6.13656084E-05
   47.6540451        -5.84903537E-05
   47.7385712        -5.55647093E-05
   47.8231010        -5.26015392E-05
   47.9076309        -4.96136709E-05
   47.9921570        -4.66135825E-05
   48.0766869        -4.36135233E-05
   48.1612167        -4.06254148E-05
   48.2457428        -3.76607422E-05
   48.3302727        -3.47305468E-05
   48.4147987        -3.18453531E-05
   48.4993286        -2.90151911E-05
   48.5838585        -2.62494395E-05
   48.6683846        -2.35569696E-05
   48.7529144        -2.09459868E-05
   48.8374405        -1.84240434E-05
   48.9219704        -1.59981155E-05
   49.0065002        -1.36744757E-05
   49.0910263        -1.14586828E-05
   49.1755562        -9.35571734E-06
   49.2600861        -7.36988659E-06
   49.3446121        -5.50479672E-06
   49.4291420        -3.76340290E-06
   49.5136681        -2.14802321E-06
   49.5981979        -6.60334990E-07
   49.6827278         6.98610393E-07
   49.7672539         1.92845437E-06
   49.8517838         3.02931380E-06
   49.9363136         4.00200952E-06
   50.0208397         4.84787552E-06
   50.1053696         5.56878558E-06
   50.1898956         6.16717080E-06
   50.2744255         6.64587742E-06
   50.3589554         7.00830969E-06
   50.4434814         7.25822611E-06
   50.5280113         7.39983443E-06
   50.6125412         7.43764394E-06
   50.6970673         7.37651908E-06
   50.7815971         7.22160439E-06
   50.8661232         6.97825953E-06
   50.9506531         6.65204198E-06
   51.0351830         6.24864060E-06
   51.1197090         5.77381434E-06
   51.2042389         5.23340941E-06
   51.2887688         4.63322249E-06
   51.3732948         3.97900749E-06
   51.4578247         3.27644011E-06
   51.5423508         2.53100984E-06
   51.6268806         1.74805575E-06
   51.7114105         9.32689147E-07
   51.7959366         8.97980144E-08
   51.8804665        -7.76024535E-07
   51.9649963        -1.66049313E-06
   52.0495224        -2.55958616E-06
   52.1340523        -3.46961906E-06
   52.2185783        -4.38721690E-06
   52.3031082        -5.30935995E-06
   52.3876381        -6.23327242E-06
   52.4721642        -7.15653323E-06
   52.5566940        -8.07696142E-06
   52.6412201        -8.99265433E-06
   52.7257500        -9.90189437E-06
   52.8102798        -1.08031973E-05
   52.8948059        -1.16951878E-05
   52.9793358        -1.25766428E-05
   53.0638657        -1.34463735E-05
   53.1483917        -1.43032821E-05
   53.2329216        -1.51462136E-05
   53.3174477        -1.59739920E-05
   53.4019775        -1.67854141E-05
   53.4865074        -1.75790847E-05
   53.5710335        -1.83535758E-05
   53.6555634        -1.91071958E-05
   53.7400932        -1.98381731E-05
   53.8246193        -2.05444994E-05
   53.9091492        -2.12239429E-05
   53.9936752        -2.18741388E-05
   54.0782051        -2.24924879E-05
   54.1627350        -2.30762125E-05
   54.2472610        -2.36223441E-05
   54.3317909        -2.41278103E-05
   54.4163208        -2.45893807E-05
   54.5008469        -2.50037301E-05
   54.5853767        -2.53674880E-05
   54.6699028        -2.56772673E-05
   54.7544327        -2.59297249E-05
   54.8389626        -2.61215464E-05
   54.9234886        -2.62495978E-05
   55.0080185        -2.63108159E-05
   55.0925484        -2.63024358E-05
   55.1770744        -2.62219182E-05
   55.2616043        -2.60670131E-05
   55.3461304        -2.58358759E-05
   55.4306602        -2.55270024E-05
   55.5151901        -2.51392830E-05
   55.5997162        -2.46721702E-05
   55.6842461        -2.41255220E-05
   55.7687759        -2.34997187E-05
   55.8533020        -2.27956934E-05
   55.9378319        -2.20149032E-05
   56.0223579        -2.11593942E-05
   56.1068878        -2.02316933E-05
   56.1914177        -1.92349598E-05
   56.2759438        -1.81727919E-05
   56.3604736        -1.70493622E-05
   56.4449997        -1.58693474E-05
   56.5295296        -1.46378188E-05
   56.6140594        -1.33603744E-05
   56.6985855        -1.20428922E-05
   56.7831154        -1.06916577E-05
   56.8676453        -9.31319755E-06
   56.9521713        -7.91431103E-06
   57.0367012        -6.50193124E-06
   57.1212273        -5.08313724E-06
   57.2057571        -3.66502150E-06
   57.2902870        -2.25470535E-06
   57.3748131        -8.59162242E-07
   57.4593430         5.14671569E-07
   57.5438728         1.86017633E-06
   57.6283989         3.17093486E-06
   57.7129288         4.44088664E-06
   57.7974548         5.66436211E-06
   57.8819847         6.83608096E-06
   57.9665146         7.95133201E-06
   58.0510406         9.00588475E-06
   58.1355705         9.99614167E-06
   58.2201004         1.09190241E-05
   58.3046265         1.17722066E-05
   58.3891563         1.25539573E-05
   58.4736824         1.32632485E-05
   58.5582123         1.38997302E-05
   58.6427422         1.44637652E-05
   58.7272682         1.49563521E-05
   58.8117981         1.53792371E-05
   58.8963280         1.57347713E-05
   58.9808540         1.60259715E-05
   59.0653839         1.62564502E-05
   59.1499100         1.64303565E-05
   59.2344398         1.65524798E-05
   59.3189697         1.66280242E-05
   59.4034958         1.66626924E-05
   59.4880257         1.66625214E-05
   59.5725517         1.66339596E-05
   59.6570816         1.65837209E-05
   59.7416115         1.65187448E-05
   59.8261375         1.64461362E-05
   59.9106674         1.63730419E-05
   59.9951973         1.63067525E-05
   60.0797234         1.62544002E-05
   60.1642532         1.62230663E-05
   60.2487793         1.62196593E-05
   60.3333092         1.62508550E-05
   60.4178391         1.63229961E-05
   60.5023651         1.64420562E-05
   60.5868950         1.66135924E-05
   60.6714249         1.68426450E-05
   60.7559509         1.71337160E-05
   60.8404808         1.74906545E-05
   60.9250069         1.79166818E-05
   61.0095367         1.84142864E-05
   61.0940666         1.89851835E-05
   61.1785927         1.96302735E-05
   61.2631226         2.03497166E-05
   61.3476524         2.11426941E-05
   61.4321785         2.20076636E-05
   61.5167084         2.29420584E-05
   61.6012344         2.39425935E-05
   61.6857643         2.50050507E-05
   61.7702942         2.61243931E-05
   61.8548203         2.72947964E-05
   61.9393501         2.85096739E-05
   62.0238800         2.97617025E-05
   62.1084061         3.10429532E-05
   62.1929359         3.23449058E-05
   62.2774620         3.36584744E-05
   62.3619919         3.49742368E-05
   62.4465218         3.62824285E-05
   62.5310478         3.75729687E-05
   62.6155777         3.88357948E-05
   62.7001076         4.00606841E-05
   62.7846336         4.12375994E-05
   62.8691635         4.23565943E-05
   62.9536896         4.34081485E-05
   63.0382195         4.43829995E-05
   63.1227493         4.52724234E-05
   63.2072754         4.60682677E-05
   63.2918053         4.67630707E-05
   63.3763313         4.73500149E-05
   63.4608612         4.78231486E-05
   63.5453911         4.81772950E-05
   63.6299171         4.84082266E-05
   63.7144470         4.85125784E-05
   63.7989769         4.84878874E-05
   63.8835030         4.83327349E-05