  -4.50000000         0.00000000    
  -4.41547155         0.00000000    
  -4.33094311         0.00000000    
  -4.24641466         0.00000000    
  -4.16188622         0.00000000    
  -4.07735777         0.00000000    
  -3.99282932         0.00000000    
  -3.90830088         0.00000000    
  -3.82377243         0.00000000    
  -3.73924398         0.00000000    
  -3.65471554         0.00000000    
  -3.57018733         0.00000000    
  -3.48565888         0.00000000    
  -3.40113044         0.00000000    
  -3.31660199        -4.08441009E-35
  -3.23207355        -1.74402082E-34
  -3.14754510        -2.66383895E-34
  -3.06301665         6.48416861E-35
  -2.97848821         1.13125214E-33
  -2.89395976         2.98871698E-33
  -2.80943131         4.62975723E-33
  -2.72490287        -1.19387861E-30
  -2.64037442        -3.51874285E-30
  -2.55584598        -8.61684755E-30
  -2.47131753        -1.76901781E-29
  -2.38678908        -2.01457448E-29
  -2.30226064         4.57455607E-30
  -2.21773219         1.09069168E-28
  -2.13320374         3.82992186E-28
  -2.04867530         9.47889563E-28
  -1.96414697         1.92195405E-27
  -1.87961853         3.30556562E-27
  -1.79509008         4.74896422E-27
  -1.71056163         5.21465793E-27
  -1.62603319         2.53959979E-27
  -1.54150474        -6.98385955E-27
  -1.45697629        -2.87316269E-26
  -1.37244797        -6.91510662E-26
  -1.28791952        -1.33862325E-25
  -1.20339108        -2.23849364E-25
  -1.11886263        -3.29358944E-25
  -1.03433418        -4.21781148E-25
 -0.949805737        -4.44984407E-25
 -0.865277290        -3.09313594E-25
 -0.780748844         1.06556139E-25
 -0.696220458         9.39147289E-25
 -0.611692011         2.30221502E-24
 -0.527163565         4.22309625E-24
 -0.442635119         6.55577333E-24
 -0.358106703         8.88398980E-24
 -0.273578256         1.04419648E-23
 -0.189049825         1.00945694E-23
 -0.104521386         6.42798063E-24
  -1.99929532E-02    -2.00112555E-24
   6.45354837E-02    -1.62313432E-23
  0.149063915        -3.62952220E-23
  0.233592346        -6.05346363E-23
  0.318120778        -8.49939944E-23
  0.402649224        -1.03123766E-22
  0.487177670        -1.06064936E-22
  0.571706116        -8.37625068E-23
  0.656234503        -2.70474467E-23
  0.740762949         6.93780510E-23
  0.825291395         2.03406106E-22
  0.909819841         3.62123430E-22
  0.994348288         5.19534250E-22
   1.07887673         6.36566423E-22
   1.16340518         6.64474277E-22
   1.24793363         5.52379187E-22
   1.33246195         2.58970085E-22
   1.41699040        -2.32674739E-22
   1.50151885        -8.99423510E-22
   1.58604729        -1.66510165E-21
   1.67057574        -2.39455115E-21
   1.75510418        -2.89930763E-21
   1.83963263        -2.95858736E-21
   1.92416108        -2.35717616E-21
   2.00868940        -9.38467909E-22
   2.09321785         1.33338698E-21
   2.17774630         4.31284782E-21
   2.26227474         7.62839936E-21
   2.34680319         1.06706986E-20
   2.43133163         1.26292417E-20
   2.51586008         1.25886073E-20
   2.60038853         9.68633990E-21
   2.68491697         3.32179275E-21
   2.76944542        -6.60982054E-21
   2.85397387        -1.94987247E-20
   2.93850231        -3.38693173E-20
   3.02303076        -4.73524485E-20
   3.10755920        -5.68315603E-20
   3.19208765        -5.87939623E-20
   3.27661610        -4.98875309E-20
   3.36114454        -2.76411740E-20
   3.44567299         8.73918902E-21
   3.53020120         5.76309981E-20
   3.61472964         1.14474662E-19
   3.69925809         1.71644203E-19
   3.78378654         2.18857127E-19
   3.86831498         2.44214478E-19
   3.95284343         2.35869001E-19
   4.03737211         1.84200030E-19
   4.12190056         8.42446166E-20
   4.20642900        -6.19867955E-20
   4.29095745        -2.43763095E-19
   4.37548542        -4.40932296E-19
   4.46001387        -6.24689125E-19
   4.54454231        -7.60080238E-19
   4.62907076        -8.10287878E-19
   4.71359921        -7.42423706E-19
   4.79812765        -5.34238011E-19
   4.88265610        -1.80839789E-19
   4.96718454         2.99715505E-19
   5.05171299         8.63196470E-19
   5.13624144         1.43946653E-18
   5.22076988         1.93708908E-18
   5.30529833         2.25259210E-18
   5.38982677         2.28402827E-18
   5.47435522         1.94769829E-18
   5.55888367         1.19612571E-18
   5.64341211         3.47538319E-20
   5.72794056        -1.46554546E-18
   5.81246901        -3.16305160E-18
   5.89699745        -4.84929382E-18
   5.98152590        -6.26415978E-18
   6.06605434        -7.12218472E-18
   6.15058279        -7.14851967E-18
   6.23511124        -6.12131107E-18
   6.31963968        -3.91567863E-18
   6.40416813        -5.43217522E-19
   6.48869658         3.81950152E-18
   6.57322502         8.81968507E-18
   6.65775347         1.39392407E-17
   6.74228191         1.85305100E-17
   6.82681036         2.18765085E-17
   6.91133881         2.32717488E-17
   6.99586725         2.21164108E-17
   7.08039570         1.80133534E-17
   7.16492414         1.08555246E-17
   7.24945259         8.90740654E-19
   7.33398104        -1.12482716E-17
   7.41850948        -2.45576160E-17
   7.50303793        -3.77244652E-17
   7.58756638        -4.92363047E-17
   7.67209482        -5.75301138E-17
   7.75662327        -6.11673593E-17
   7.84115171        -5.90167824E-17
   7.92567968        -5.04229482E-17
   8.01020813        -3.53388763E-17
   8.09473705        -1.44030492E-17
   8.17926502         1.10536170E-17
   8.26379395         3.90778716E-17
   8.34832191         6.72390437E-17
   8.43285084         9.28377492E-17
   8.51737881         1.13158387E-16
   8.60190773         1.25739831E-16
   8.68643570         1.28635214E-16
   8.77096462         1.20631547E-16
   8.85549259         1.01404905E-16
   8.94002151         7.15931371E-17
   9.02454948         3.27779748E-17
   9.10907841        -1.26218249E-17
   9.19360638        -6.15349650E-17
   9.27813530        -1.10479262E-16
   9.36266327        -1.55837413E-16
   9.44719219        -1.94139515E-16
   9.53172016        -2.22328387E-16
   9.61624908        -2.37986983E-16
   9.70077705        -2.39513071E-16
   9.78530502        -2.26235830E-16
   9.86983395        -1.98466861E-16
   9.95436192        -1.57490781E-16
   10.0388908        -1.05495207E-16
   10.1234188        -4.54426691E-17
   10.2079477         1.91161076E-17
   10.2924757         8.42910742E-17
   10.3770046         1.46159003E-16
   10.4615326         2.01130713E-16
   10.5460615         2.46360115E-16
   10.6305895         2.80172135E-16
   10.7151184         3.02466122E-16
   10.7996464         3.15030532E-16
   10.8841753         3.21702372E-16
   10.9687033         3.28282521E-16
   11.0532322         3.42137677E-16
   11.1377602         3.71424477E-16
   11.2222891         4.23929932E-16
   11.3068171         5.05549550E-16
   11.3913460         6.18512987E-16
   11.4758739         7.59516074E-16
   11.5604029         9.18004779E-16
   11.6449308         1.07488746E-15
   11.7294598         1.20198539E-15
   11.8139877         1.26252632E-15
   11.8985167         1.21290671E-15
   11.9830446         1.00586814E-15
   12.0675735         5.95085962E-16
   12.1521015        -5.89955867E-17
   12.2366304        -9.82486221E-16
   12.3211584        -2.18101455E-15
   12.4056873        -3.63309245E-15
   12.4902153        -5.28464533E-15
   12.5747442        -7.04553112E-15
   12.6592722        -8.78886045E-15
   12.7438011        -1.03536844E-14
   12.8283291        -1.15515084E-14
   12.9128580        -1.21766890E-14
   12.9973860        -1.20204063E-14
   13.0819149        -1.08877547E-14
   13.1664429        -8.61671455E-15
   13.2509708        -5.09803339E-15
   13.3354998        -2.94246435E-16
   13.4200277         5.74350680E-15
   13.5045567         1.28626400E-14
   13.5890846         2.08015554E-14
   13.6736135         2.91886876E-14
   13.7581415         3.75488520E-14
   13.8426704         4.53174824E-14
   13.9271984         5.18626076E-14
   14.0117273         5.65142788E-14
   14.0962553         5.86001923E-14
   14.1807842         5.74865134E-14
   14.2653122         5.26219896E-14
   14.3498411         4.35833417E-14
   14.4343691         3.01197293E-14
   14.5188980         1.21939151E-14
   14.6034260        -9.98241627E-15
   14.6879549        -3.59217796E-14
   14.7724829        -6.48447564E-14
   14.8570118        -9.56770470E-14
   14.9415398        -1.27061691E-13
   15.0260687        -1.57387964E-13
   15.1105967        -1.84837958E-13
   15.1951256        -2.07451027E-13
   15.2796535        -2.23205609E-13
   15.3641825        -2.30116219E-13
   15.4487104        -2.26343006E-13
   15.5332394        -2.10309716E-13
   15.6177673        -1.80824241E-13
   15.7022963        -1.37196651E-13
   15.7868242        -7.93462450E-14
   15.8713531        -7.89172550E-15
   15.9558811         7.57835635E-14
   16.0404091         1.69497825E-13
   16.1249390         2.70273306E-13
   16.2094669         3.74380025E-13
   16.2939949         4.77421379E-13
   16.3785229         5.74462895E-13
   16.4630527         6.60199868E-13
   16.5475807         7.29159897E-13
   16.6321087         7.75933246E-13
   16.7166367         7.95420858E-13
   16.8011646         7.83092233E-13
   16.8856945         7.35239452E-13
   16.9702225         6.49218960E-13
   17.0547504         5.23669216E-13
   17.1392784         3.58694547E-13
   17.2238083         1.56006623E-13
   17.3083363        -8.09818521E-14
   17.3928642        -3.47119225E-13
   17.4773922        -6.35534160E-13
   17.5619221        -9.37718002E-13
   17.6464500        -1.24366598E-12
   17.7309780        -1.54208579E-12
   17.8155060        -1.82066341E-12
   17.9000359        -2.06639046E-12
   17.9845638        -2.26595088E-12
   18.0690918        -2.40615275E-12
   18.1536198        -2.47441108E-12
   18.2381496        -2.45926196E-12
   18.3226776        -2.35089986E-12
   18.4072056        -2.14172755E-12
   18.4917336        -1.82689107E-12
   18.5762634        -1.40478829E-12
   18.6607914        -8.77516972E-13
   18.7453194        -2.51255885E-13
   18.8298473         4.63470842E-13
   18.9143772         1.25164939E-12
   18.9989052         2.09378608E-12
   19.0834332         2.96608831E-12
   19.1679611         3.84082870E-12
   19.2524910         4.68690278E-12
   19.3370190         5.47058102E-12
   19.4215469         6.15644341E-12
   19.5060749         6.70848837E-12
   19.5906048         7.09138954E-12
   19.6751328         7.27185890E-12
   19.7596607         7.22009301E-12
   19.8441887         6.91123374E-12
   19.9287186         6.32683402E-12
   20.0132465         5.45619929E-12
   20.0977745         4.29763343E-12
   20.1823025         2.85945985E-12
   20.2668324         1.16079292E-12
   20.3513603        -7.67988537E-13
   20.4358883        -2.88514503E-12
   20.5204163        -5.13787190E-12
   20.6049442        -7.46302325E-12
   20.6894741        -9.78829604E-12
   20.7740021        -1.20338713E-11
   20.8585300        -1.41144908E-11
   20.9430580        -1.59419578E-11
   21.0275879        -1.74279827E-11
   21.1121159        -1.84873592E-11
   21.1966438        -1.90412963E-11
   21.2811718        -1.90208752E-11
   21.3657017        -1.83704649E-11
   21.4502296        -1.70509822E-11
   21.5347576        -1.50428177E-11
   21.6192856        -1.23483368E-11
   21.7038155        -8.99379269E-12
   21.7883434        -5.03048514E-12
   21.8728714        -5.35142568E-13
   21.9573994         4.39061374E-12
   22.0419292         9.62178601E-12
   22.1264572         1.50124548E-11
   22.2109852         2.03992049E-11
   22.2955132         2.56054136E-11
   22.3800430         3.04464023E-11
   22.4645710         3.47351939E-11
   22.5490990         3.82887298E-11
   22.6336269         4.09344850E-11
   22.7181568         4.25171183E-11
   22.8026848         4.29049504E-11
   22.8872128         4.19960629E-11
   22.9717407         3.97237868E-11
   23.0562706         3.60612477E-11
   23.1407986         3.10249743E-11
   23.2253265         2.46770035E-11
   23.3098545         1.71257505E-11
   23.3943844         8.52519444E-12
   23.4789124        -9.27491374E-13
   23.5634403        -1.09959646E-11
   23.6479683        -2.14102989E-11
   23.7324982        -3.18740243E-11
   23.8170261        -4.20724358E-11
   23.9015541        -5.16819712E-11
   23.9860821        -6.03802494E-11
   24.0706100        -6.78565953E-11
   24.1551399        -7.38225800E-11
   24.2396679        -7.80221929E-11
   24.3241959        -8.02413136E-11
   24.4087238        -8.03162120E-11
   24.4932537        -7.81403067E-11
   24.5777817        -7.36697925E-11
   24.6623096        -6.69269015E-11
   24.7468376        -5.80014925E-11
   24.8313675        -4.70503254E-11
   24.9158955        -3.42943902E-11
   25.0004234        -2.00143044E-11
   25.0849514        -4.54376424E-12
   25.1694813         1.17385286E-11
   25.2540092         2.84184464E-11
   25.3385372         4.50570692E-11
   25.4230652         6.12022794E-11
   25.5075951         7.64006636E-11
   25.5921230         9.02102559E-11
   25.6766510         1.02212433E-10
   25.7611790         1.12024702E-10
   25.8457088         1.19311491E-10
   25.9302368         1.23795696E-10
   26.0147648         1.25267657E-10
   26.0992928         1.23593913E-10
   26.1838226         1.18723503E-10
   26.2683506         1.10692712E-10
   26.3528786         9.96274244E-11
   26.4374065         8.57432250E-11
   26.5219364         6.93424831E-11
   26.6064644         5.08089230E-11
   26.6909924         3.05992280E-11
   26.7755203         9.23174471E-12
   26.8600502        -1.27272567E-11
   26.9445782        -3.46799672E-11
   27.0291061        -5.60151613E-11
   27.1136341        -7.61278332E-11
   27.1981640        -9.44400114E-11
   27.2826920        -1.10420673E-10
   27.3672199        -1.23606181E-10
   27.4517479        -1.33618228E-10
   27.5362759        -1.40179923E-10
   27.6208057        -1.43128689E-10
   27.7053337        -1.42425072E-10
   27.7898617        -1.38158068E-10
   27.8743896        -1.30544409E-10
   27.9589195        -1.19924057E-10
   28.0434475        -1.06749685E-10
   28.1279755        -9.15719722E-11
   28.2125034        -7.50193935E-11
   28.2970333        -5.77744970E-11
   28.3815613        -4.05467951E-11
   28.4660892        -2.40426117E-11
   28.5506172        -8.93335579E-12
   28.6351471         4.17519925E-12
   28.7196751         1.47751273E-11
   28.8042030         2.24838672E-11
   28.8887310         2.70698880E-11
   28.9732609         2.84726548E-11
   29.0577888         2.68162541E-11
   29.1423168         2.24170994E-11
   29.2268448         1.57810969E-11
   29.3113747         7.59455693E-12
   29.3959026        -1.29575712E-12
   29.4804306        -9.91135299E-12
   29.5649586        -1.71788330E-11
   29.6494884        -2.19755516E-11
   29.7340164        -2.31809693E-11
   29.8185444        -1.97341761E-11
   29.9030724        -1.06931278E-11
   29.9876022         4.70478821E-12
   30.0721302         2.69841025E-11
   30.1566582         5.63779926E-11
   30.2411861         9.27818170E-11
   30.3257160         1.35717271E-10
   30.4102440         1.84309262E-10
   30.4947720         2.37277226E-10
   30.5792999         2.92944446E-10
   30.6638298         3.49262397E-10
   30.7483578         4.03856920E-10
   30.8328857         4.54089072E-10
   30.9174137         4.97134944E-10
   31.0019417         5.30080979E-10
   31.0864716         5.50031076E-10
   31.1709995         5.54225221E-10
   31.2555275         5.40161249E-10
   31.3400555         5.05722353E-10
   31.4245853         4.49298349E-10
   31.5091133         3.69900555E-10
   31.5936413         2.67265154E-10
   31.6781693         1.41936601E-10
   31.7626991        -4.66936776E-12
   31.8472271        -1.70228984E-10
   31.9317551        -3.51503382E-10
   32.0162849        -5.44364498E-10
   32.1008110        -7.43853923E-10
   32.1853409        -9.44277212E-10
   32.2698708        -1.13933074E-09
   32.3543968        -1.32226297E-09
   32.4389267        -1.48606139E-09
   32.5234528        -1.62366742E-09
   32.6079826        -1.72820769E-09
   32.6925125        -1.79323933E-09
   32.7770386        -1.81299675E-09
   32.8615685        -1.78263648E-09
   32.9460983        -1.69846914E-09
   33.0306244        -1.55816537E-09
   33.1151543        -1.36093459E-09
   33.1996803        -1.10766130E-09
   33.2842102        -8.00993938E-10
   33.3687401        -4.45379678E-10
   33.4532661        -4.70467727E-11
   33.5377960         3.86085053E-10
   33.6223259         8.44544379E-10
   33.7068520         1.31751143E-09
   33.7913818         1.79307602E-09
   33.8759079         2.25854180E-09
   33.9604378         2.70076894E-09
   34.0449677         3.10654769E-09
   34.1294937         3.46298190E-09
   34.2140236         3.75788067E-09
   34.2985535         3.98013400E-09
   34.3830795         4.12006296E-09
   34.4676094         4.16973966E-09
   34.5521355         4.12324397E-09
   34.6366653         3.97687394E-09
   34.7211952         3.72927778E-09
   34.8057213         3.38152395E-09
   34.8902512         2.93709612E-09
   34.9747772         2.40179454E-09
   35.0593071         1.78360104E-09
   35.1438370         1.09245735E-09
   35.2283630         3.39997308E-10
   35.3128929        -4.60769256E-10
   35.3974228        -1.29580102E-09
   35.4819489        -2.15037610E-09
   35.5664787        -3.00946379E-09
   35.6510048        -3.85807386E-09
   35.7355347        -4.68157024E-09
   35.8200645        -5.46597656E-09
   35.9045906        -6.19818685E-09
   35.9891205        -6.86617518E-09
   36.0736504        -7.45908402E-09
   36.1581764        -7.96729971E-09
   36.2427063        -8.38242009E-09
   36.3272324        -8.69719674E-09
   36.4117622        -8.90539642E-09
   36.4962921        -9.00163588E-09
   36.5808182        -8.98118646E-09
   36.6653481        -8.83976359E-09
   36.7498779        -8.57330917E-09
   36.8344040        -8.17783175E-09
   36.9189339        -7.64923058E-09
   37.0034599        -6.98322955E-09
   37.0879898        -6.17535978E-09
   37.1725197        -5.22103161E-09
   37.2570457        -4.11569978E-09
   37.3415756        -2.85513790E-09
   37.4261055        -1.43581103E-09
   37.5106316         1.44662643E-10
   37.5951614         1.88694682E-09
   37.6796875         3.78934795E-09
   37.7642174         5.84714588E-09
   37.8487473         8.05186939E-09
   37.9332733         1.03905613E-08
   38.0178032         1.28451116E-08
   38.1023293         1.53915831E-08
   38.1868591         1.79997173E-08
   38.2713890         2.06324788E-08
   38.3559151         2.32457911E-08
   38.4404449         2.57884807E-08
   38.5249748         2.82024306E-08
   38.6095009         3.04228323E-08
   38.6940308         3.23789386E-08
   38.7785568         3.39947839E-08
   38.8630867         3.51903857E-08
   38.9476166         3.58830547E-08
   39.0321426         3.59889327E-08
   39.1166725         3.54248932E-08
   39.2012024         3.41104354E-08
   39.2857285         3.19698259E-08
   39.3702583         2.89343642E-08
   39.4547844         2.49447485E-08
   39.5393143         1.99533456E-08
   39.6238441         1.39265781E-08
   39.7083702         6.84726409E-09
   39.7929001        -1.28331346E-09
   39.8774300        -1.04431885E-08
   39.9619560        -2.05879918E-08
   40.0464859        -3.16490798E-08
   40.1310120        -4.35322569E-08
   40.2155418        -5.61164413E-08
   40.3000717        -6.92527564E-08
   40.3845978        -8.27638189E-08
   40.4691277        -9.64434292E-08
   40.5536575        -1.10056334E-07
   40.6381836        -1.23338523E-07
   40.7227135        -1.35997368E-07
   40.8072395        -1.47712754E-07
   40.8917694        -1.58137581E-07
   40.9762993        -1.66899198E-07
   41.0608253        -1.73600711E-07
   41.1453552        -1.77822642E-07
   41.2298851        -1.79124910E-07
   41.3144112        -1.77048648E-07
   41.3989410        -1.71118870E-07
   41.4834671        -1.60846611E-07
   41.5679970        -1.45731875E-07
   41.6525269        -1.25266595E-07
   41.7370529        -9.89377469E-08
   41.8215828        -6.62307258E-08
   41.9061089        -2.66329607E-08
   41.9906387         2.03621724E-08
   42.0751686         7.52513856E-08
   42.1596947         1.38516967E-07
   42.2442245         2.10622844E-07
   42.3287544         2.92009418E-07
   42.4132805         3.83089059E-07
   42.4978104         4.84241298E-07
   42.5823364         5.95807762E-07
   42.6668663         7.18087165E-07
   42.7513962         8.51330924E-07
   42.8359222         9.95738674E-07
   42.9204521         1.15145212E-06
   43.0049820         1.31855325E-06
   43.0895081         1.49705863E-06
   43.1740379         1.68691736E-06
   43.2585640         1.88800709E-06
   43.3430939         2.10013422E-06
   43.4276237         2.32302909E-06
   43.5121498         2.55634791E-06
   43.5966797         2.79967139E-06
   43.6812096         3.05250592E-06
   43.7657356         3.31428737E-06
   43.8502655         3.58437910E-06
   43.9347916         3.86207921E-06
   44.0193214         4.14662236E-06
   44.1038513         4.43718955E-06
   44.1883774         4.73290220E-06
   44.2729073         5.03284491E-06
   44.3574371         5.33605589E-06
   44.4419632         5.64154698E-06
   44.5264931         5.94830408E-06
   44.6110191         6.25529538E-06
   44.6955490         6.56148177E-06
   44.7800789         6.86582416E-06
   44.8646049         7.16729164E-06
   44.9491348         7.46486467E-06
   45.0336647         7.75754688E-06
   45.1181908         8.04437332E-06
   45.2027206         8.32441492E-06
   45.2872467         8.59677675E-06
   45.3717766         8.86062026E-06
   45.4563065         9.11514962E-06
   45.5408325         9.35963180E-06
   45.6253624         9.59339104E-06
   45.7098885         9.81580888E-06
   45.7944183         1.00263369E-05
   45.8789482         1.02244921E-05
   45.9634743         1.04098544E-05
   46.0480042         1.05820800E-05
   46.1325340         1.07408914E-05
   46.2170601         1.08860813E-05
   46.3015900         1.10175024E-05
   46.3861160         1.11350901E-05
   46.4706459         1.12388398E-05
   46.5551758         1.13288152E-05
   46.6397018         1.14051400E-05
   46.7242317         1.14680097E-05
   46.8087616         1.15176690E-05
   46.8932877         1.15544308E-05
   46.9778175         1.15786506E-05
   47.0623436         1.15907587E-05
   47.1468735         1.15912117E-05
   47.2314034         1.15805096E-05
   47.3159294         1.15592220E-05
   47.4004593         1.15279281E-05
   47.4849892         1.14872519E-05
   47.5695152         1.14378445E-05
   47.6540451         1.13803799E-05
   47.7385712         1.13155438E-05
   47.8231010         1.12440539E-05
   47.9076309         1.11665977E-05
   47.9921570         1.10839155E-05
   48.0766869         1.09966968E-05
   48.1612167         1.09056473E-05
   48.2457428         1.08114473E-05
   48.3302727         1.07147680E-05
   48.4147987         1.06162479E-05
   48.4993286         1.05164991E-05
   48.5838585         1.04161072E-05
   48.6683846         1.03156208E-05
   48.7529144         1.02155482E-05
   48.8374405         1.01163578E-05
   48.9219704         1.00184825E-05
   49.0065002         9.92232526E-06
   49.0910263         9.82821348E-06
   49.1755562         9.73647821E-06
   49.2600861         9.64739047E-06
   49.3446121         9.56117128E-06
   49.4291420         9.47802255E-06
   49.5136681         9.39812435E-06
   49.5981979         9.32159310E-06
   49.6827278         9.24855431E-06
   49.7672539         9.17907255E-06
   49.8517838         9.11321877E-06
   49.9363136         9.05102752E-06
   50.0208397         8.99253519E-06
   50.1053696         8.93772540E-06
   50.1898956         8.88661361E-06
   50.2744255         8.83918710E-06
   50.3589554         8.79540858E-06
   50.4434814         8.75525893E-06
   50.5280113         8.71868542E-06
   50.6125412         8.68564530E-06
   50.6970673         8.65608763E-06
   50.7815971         8.62994693E-06
   50.8661232         8.60715318E-06
   50.9506531         8.58762905E-06
   51.0351830         8.57127816E-06
   51.1197090         8.55801864E-06
   51.2042389         8.54773862E-06
   51.2887688         8.54033533E-06
   51.3732948         8.53568326E-06
   51.4578247         8.53366600E-06
   51.5423508         8.53415440E-06
   51.6268806         8.53702022E-06
   51.7114105         8.54213704E-06
   51.7959366         8.54939026E-06
   51.8804665         8.55866438E-06
   51.9649963         8.56986117E-06
   52.0495224         8.58289968E-06
   52.1340523         8.59770716E-06
   52.2185783         8.61425906E-06
   52.3031082         8.63252717E-06
   52.3876381         8.65252787E-06
   52.4721642         8.67432573E-06
   52.5566940         8.69799442E-06
   52.6412201         8.72365399E-06
   52.7257500         8.75144815E-06
   52.8102798         8.78157152E-06
   52.8948059         8.81424148E-06
   52.9793358         8.84969631E-06
   53.0638657         8.88819613E-06
   53.1483917         8.93002834E-06
   53.2329216         8.97548216E-06
   53.3174477         9.02483225E-06
   53.4019775         9.07837784E-06
   53.4865074         9.13635722E-06
   53.5710335         9.19901686E-06
   53.6555634         9.26651865E-06
   53.7400932         9.33901356E-06
   53.8246193         9.41655253E-06
   53.9091492         9.49914920E-06
   53.9936752         9.58669352E-06
   54.0782051         9.67901815E-06
   54.1627350         9.77584386E-06
   54.2472610         9.87680232E-06
   54.3317909         9.98140695E-06
   54.4163208         1.00890693E-05
   54.5008469         1.01991063E-05
   54.5853767         1.03107423E-05
   54.6699028         1.04230785E-05
   54.7544327         1.05351764E-05
   54.8389626         1.06460002E-05
   54.9234886         1.07544465E-05
   55.0080185         1.08593777E-05
   55.0925484         1.09596540E-05
   55.1770744         1.10540941E-05
   55.2616043         1.11415202E-05
   55.3461304         1.12208345E-05
   55.4306602         1.12909511E-05
   55.5151901         1.13508704E-05
   55.5997162         1.13996821E-05
   55.6842461         1.14366176E-05
   55.7687759         1.14610002E-05
   55.8533020         1.14723380E-05
   55.9378319         1.14702789E-05
   56.0223579         1.14546683E-05
   56.1068878         1.14255263E-05
   56.1914177         1.13830638E-05
   56.2759438         1.13276683E-05
   56.3604736         1.12599664E-05
   56.4449997         1.11807522E-05
   56.5295296         1.10909859E-05
   56.6140594         1.09918137E-05
   56.6985855         1.08845579E-05
   56.7831154         1.07706464E-05
   56.8676453         1.06516482E-05
   56.9521713         1.05292438E-05
   57.0367012         1.04051787E-05
   57.1212273         1.02812455E-05
   57.2057571         1.01592505E-05
   57.2902870         1.00410080E-05
   57.3748131         9.92830974E-06
   57.4593430         9.82286838E-06
   57.5438728         9.72632370E-06
   57.6283989         9.64018272E-06
   57.7129288         9.56583972E-06
   57.7974548         9.50452795E-06
   57.8819847         9.45727061E-06
   57.9665146         9.42493352E-06
   58.0510406         9.40815971E-06
   58.1355705         9.40736209E-06
   58.2201004         9.42273527E-06
   58.3046265         9.45426291E-06
   58.3891563         9.50166122E-06
   58.4736824         9.56446002E-06
   58.5582123         9.64195260E-06
   58.6427422         9.73323313E-06
   58.7272682         9.83720565E-06
   58.8117981         9.95257233E-06
   58.8963280         1.00779171E-05
   58.9808540         1.02116701E-05
   59.0653839         1.03521434E-05
   59.1499100         1.04975743E-05
   59.2344398         1.06461084E-05
   59.3189697         1.07959122E-05
   59.4034958         1.09450775E-05
   59.4880257         1.10917517E-05
   59.5725517         1.12341077E-05
   59.6570816         1.13703936E-05
   59.7416115         1.14989261E-05
   59.8261375         1.16181200E-05
   59.9106674         1.17265463E-05
   59.9951973         1.18228954E-05
   60.0797234         1.19060105E-05
   60.1642532         1.19748984E-05
   60.2487793         1.20287295E-05
   60.3333092         1.20668738E-05
   60.4178391         1.20888535E-05
   60.5023651         1.20943778E-05
   60.5868950         1.20833274E-05
   60.6714249         1.20557806E-05
   60.7559509         1.20119585E-05
   60.8404808         1.19522347E-05
   60.9250069         1.18771404E-05
   61.0095367         1.17873487E-05
   61.0940666         1.16836363E-05
   61.1785927         1.15669518E-05
   61.2631226         1.14382483E-05
   61.3476524         1.12986399E-05
   61.4321785         1.11492882E-05
   61.5167084         1.09914208E-05
   61.6012344         1.08262675E-05
   61.6857643         1.06551706E-05
   61.7702942         1.04794108E-05
   61.8548203         1.03003485E-05
   61.9393501         1.01192709E-05
   62.0238800         9.93751655E-06
   62.1084061         9.75634430E-06
   62.1929359         9.57703287E-06
   62.2774620         9.40081827E-06
   62.3619919         9.22888375E-06
   62.4465218         9.06238074E-06
   62.5310478         8.90242063E-06
   62.6155777         8.75004844E-06
   62.7001076         8.60626551E-06
   62.7846336         8.47200681E-06
   62.8691635         8.34817911E-06
   62.9536896         8.23560276E-06
   63.0382195         8.13505267E-06
   63.1227493         8.04725096E-06
   63.2072754         7.97283337E-06
   63.2918053         7.91237744E-06
   63.3763313         7.86640976E-06
   63.4608612         7.83536234E-06
   63.5453911         7.81964445E-06
   63.6299171         7.81950348E-06
   63.7144470         7.83519863E-06
   63.7989769         7.86685450E-06
   63.8835030         7.91453749E-06