  -4.50000000         0.00000000    
  -4.41547155         0.00000000    
  -4.33094311         0.00000000    
  -4.24641466         0.00000000    
  -4.16188622        -4.18921773E-25
  -4.07735777         4.56310773E-25
  -3.99282932        -1.14454125E-23
  -3.90830088        -2.18340871E-22
  -3.82377243        -1.45169784E-21
  -3.73924398        -6.05371929E-21
  -3.65471554        -1.86192443E-20
  -3.57018733        -4.53003007E-20
  -3.48565888        -8.99033850E-20
  -3.40113044        -1.45768495E-19
  -3.31660199        -1.84734298E-19
  -3.23207355        -1.47525194E-19
  -3.14754510         5.83329448E-20
  -3.06301665         5.48376337E-19
  -2.97848821         1.43870262E-18
  -2.89395976         2.81546721E-18
  -2.80943131         4.69982393E-18
  -2.72490287         7.00171662E-18
  -2.64037442         9.43991584E-18
  -2.55584598         1.13962443E-17
  -2.47131753         1.16884045E-17
  -2.38678908         8.30318191E-18
  -2.30226064        -1.77307715E-18
  -2.21773219        -2.23906890E-17
  -2.13320374        -5.74598233E-17
  -2.04867530        -1.09360735E-16
  -1.96414697        -1.76581289E-16
  -1.87961853        -2.50995688E-16
  -1.79509008        -3.15597965E-16
  -1.71056163        -3.43760328E-16
  -1.62603319        -3.01049512E-16
  -1.54150474        -1.50211142E-16
  -1.45697629         1.40772376E-16
  -1.37244797         5.88433683E-16
  -1.28791952         1.18283545E-15
  -1.20339108         1.87743667E-15
  -1.11886263         2.58119145E-15
  -1.03433418         3.15399198E-15
 -0.949805737         3.40683851E-15
 -0.865277290         3.10935334E-15
 -0.780748844         2.00933897E-15
 -0.696220458        -1.28738301E-16
 -0.611692011        -3.45921649E-15
 -0.527163565        -7.96117289E-15
 -0.442635119        -1.33208738E-14
 -0.358106703        -1.88120326E-14
 -0.273578256        -2.32138290E-14
 -0.189049825        -2.48221193E-14
 -0.104521386        -2.16144732E-14
  -1.99929532E-02    -1.16148791E-14
   6.45354837E-02     6.53548345E-15
  0.149063915         3.28584104E-14
  0.233592346         6.53048985E-14
  0.318120778         9.92153882E-14
  0.402649224         1.27225108E-13
  0.487177670         1.39850222E-13
  0.571706116         1.26901487E-13
  0.656234503         7.97013077E-14
  0.740762949        -6.14830766E-15
  0.825291395        -1.27944869E-13
  0.909819841        -2.73709088E-13
  0.994348288        -4.21432474E-13
   1.07887673        -5.40434451E-13
   1.16340518        -5.95215717E-13
   1.24793363        -5.51702564E-13
   1.33246195        -3.85166698E-13
   1.41699040        -8.84941534E-14
   1.50151885         3.20981739E-13
   1.58604729         7.98022998E-13
   1.67057574         1.27108035E-12
   1.75510418         1.64988975E-12
   1.83963263         1.83890641E-12
   1.92416108         1.75508176E-12
   2.00868940         1.34718799E-12
   2.09321785         6.12965895E-13
   2.17774630        -3.89944912E-13
   2.26227474        -1.54278402E-12
   2.34680319        -2.67627066E-12
   2.43133163        -3.59302020E-12
   2.51586008        -4.09931767E-12
   2.60038853        -4.04141607E-12
   2.68491697        -3.33989563E-12
   2.76944542        -2.01498648E-12
   2.85397387        -1.96673203E-13
   2.93850231         1.88440236E-12
   3.02303076         3.92581453E-12
   3.10755920         5.59873719E-12
   3.19208765         6.60288230E-12
   3.27661610         6.72150269E-12
   3.36114454         5.86603596E-12
   3.44567299         4.10115475E-12
   3.53020120         1.64409285E-12
   3.61472964        -1.16323672E-12
   3.69925809        -3.90564490E-12
   3.78378654        -6.16114538E-12
   3.86831498        -7.57079208E-12
   3.95284343        -7.89921080E-12
   4.03737211        -7.07475961E-12
   4.12190056        -5.20215078E-12
   4.20642900        -2.54583572E-12
   4.29095745         5.11720820E-13
   4.37548542         3.52797327E-12
   4.46001387         6.06274015E-12
   4.54454231         7.73353950E-12
   4.62907076         8.25500085E-12
   4.71359921         7.45846787E-12
   4.79812765         5.29355683E-12
   4.88265610         1.81849804E-12
   4.96718454        -2.81127487E-12
   5.05171299        -8.34720574E-12
   5.13624144        -1.44391530E-11
   5.22076988        -2.06155735E-11
   5.30529833        -2.62611235E-11
   5.38982677        -3.06065208E-11
   5.47435522        -3.27488418E-11
   5.55888367        -3.17183155E-11
   5.64341211        -2.66002619E-11
   5.72794056        -1.67085148E-11
   5.81246901        -1.79158815E-12
   5.89699745         1.77620210E-11
   5.98152590         4.07634065E-11
   6.06605434         6.51554921E-11
   6.15058279         8.80788220E-11
   6.23511124         1.06096285E-10
   6.31963968         1.15575542E-10
   6.40416813         1.13199422E-10
   6.48869658         9.65437869E-11
   6.57322502         6.46382114E-11
   6.65775347         1.84135936E-11
   6.74228191        -3.90571360E-11
   6.82681036        -1.02598104E-10
   6.91133881        -1.65287492E-10
   6.99586725        -2.19124330E-10
   7.08039570        -2.55944821E-10
   7.16492414        -2.68486317E-10
   7.24945259        -2.51457383E-10
   7.33398104        -2.02464059E-10
   7.41850948        -1.22644353E-10
   7.50303793        -1.68992112E-11
   7.58756638         1.06346591E-10
   7.67209482         2.35855113E-10
   7.75662327         3.58695240E-10
   7.84115171         4.61650940E-10
   7.92567968         5.32751121E-10
   8.01020813         5.62737801E-10
   8.09473705         5.46287515E-10
   8.17926502         4.82829554E-10
   8.26379395         3.76857462E-10
   8.34832191         2.37683206E-10
   8.43285084         7.86529661E-11
   8.51737881        -8.40930034E-11
   8.60190773        -2.33188663E-10
   8.68643570        -3.51776747E-10
   8.77096462        -4.25231461E-10
   8.85549259        -4.42704512E-10
   8.94002151        -3.98347633E-10
   9.02454948        -2.92106200E-10
   9.10907841        -1.30019259E-10
   9.19360638         7.59858981E-11
   9.27813530         3.08780640E-10
   9.36266327         5.47136225E-10
   9.44719219         7.67145569E-10
   9.53172016         9.43859435E-10
   9.61624908         1.05301767E-09
   9.70077705         1.07276210E-09
   9.78530502         9.85228343E-10
   9.86983395         7.77923059E-10
   9.95436192         4.44811826E-10
   10.0388908        -1.29425099E-11
   10.1234188        -5.86641402E-10
   10.2079477        -1.26015032E-09
   10.2924757        -2.01046846E-09
   10.3770046        -2.80879253E-09
   10.4615326        -3.62209218E-09
   10.5460615        -4.41519710E-09
   10.6305895        -5.15337728E-09
   10.7151184        -5.80535131E-09
   10.7996464        -6.34664588E-09
   10.8841753        -6.76314649E-09
   10.9687033        -7.05463954E-09
   11.0532322        -7.23811810E-09
   11.1377602        -7.35055750E-09
   11.2222891        -7.45086659E-09
   11.3068171        -7.62074848E-09
   11.3913460        -7.96417776E-09
   11.4758739        -8.60538218E-09
   11.5604029        -9.68513092E-09
   11.6449308        -1.13554259E-08
   11.7294598        -1.37726186E-08
   11.8139877        -1.70891532E-08
   11.8985167        -2.14442544E-08
   11.9830446        -2.69538134E-08
   12.0675735        -3.36998518E-08
   12.1521015        -4.17199431E-08
   12.2366304        -5.09969418E-08
   12.3211584        -6.14494340E-08
   12.4056873        -7.29232710E-08
   12.4902153        -8.51844746E-08
   12.5747442        -9.79142740E-08
   12.6592722        -1.10706338E-07
   12.7438011        -1.23067053E-07
   12.8283291        -1.34419437E-07
   12.9128580        -1.44111311E-07
   12.9973860        -1.51428281E-07
   13.0819149        -1.55612824E-07
   13.1664429        -1.55889325E-07
   13.2509708        -1.51496337E-07
   13.3354998        -1.41726318E-07
   13.4200277        -1.25973074E-07
   13.5045567        -1.03786874E-07
   13.5890846        -7.49372475E-08
   13.6736135        -3.94826571E-08
   13.7581415         2.15373142E-09
   13.8426704         4.91033774E-08
   13.9271984         9.99686591E-08
   14.0117273         1.52737798E-07
   14.0962553         2.04700399E-07
   14.1807842         2.52367414E-07
   14.2653122         2.91395708E-07
   14.3498411         3.16522517E-07
   14.4343691         3.21510612E-07
   14.5188980         2.99107512E-07
   14.6034260         2.41020956E-07
   14.6879549         1.37911798E-07
   14.7724829        -2.05920259E-08
   14.8570118        -2.45861401E-07
   14.9415398        -5.50209791E-07
   15.0260687        -9.46813543E-07
   15.1105967        -1.44960916E-06
   15.1951256        -2.07316953E-06
   15.2796535        -2.83255486E-06
   15.3641825        -3.74314482E-06
   15.4487104        -4.82044834E-06
   15.5332394        -6.07989386E-06
   15.6177673        -7.53660834E-06
   15.7022963        -9.20517778E-06
   15.7868242        -1.10993979E-05
   15.8713531        -1.32320274E-05
   15.9558811        -1.56145416E-05
   16.0404091        -1.82568619E-05
   16.1249390        -2.11671540E-05
   16.2094669        -2.43515897E-05
   16.2939949        -2.78141633E-05
   16.3785229        -3.15565085E-05
   16.4630527        -3.55778102E-05
   16.5475807        -3.98746524E-05
   16.6321087        -4.44410252E-05
   16.7166367        -4.92682811E-05
   16.8011646        -5.43451788E-05
   16.8856945        -5.96579339E-05
   16.9702225        -6.51903829E-05
   17.0547504        -7.09240630E-05
   17.1392784        -7.68384634E-05
   17.2238083        -8.29111523E-05
   17.3083363        -8.91180753E-05
   17.3928642        -9.54337520E-05
   17.4773922        -1.01831502E-04
   17.5619221        -1.08283784E-04
   17.6464500        -1.14762355E-04
   17.7309780        -1.21238656E-04
   17.8155060        -1.27683888E-04
   17.9000359        -1.34069429E-04
   17.9845638        -1.40366945E-04
   18.0690918        -1.46548773E-04
   18.1536198        -1.52587949E-04
   18.2381496        -1.58458570E-04
   18.3226776        -1.64135985E-04
   18.4072056        -1.69596940E-04
   18.4917336        -1.74819826E-04
   18.5762634        -1.79784794E-04
   18.6607914        -1.84474004E-04
   18.7453194        -1.88871709E-04
   18.8298473        -1.92964479E-04
   18.9143772        -1.96741254E-04
   18.9989052        -2.00193404E-04
   19.0834332        -2.03315183E-04
   19.1679611        -2.06103301E-04
   19.2524910        -2.08557351E-04
   19.3370190        -2.10679762E-04
   19.4215469        -2.12475788E-04
   19.5060749        -2.13953390E-04
   19.5906048        -2.15123393E-04
   19.6751328        -2.15999258E-04
   19.7596607        -2.16596891E-04
   19.8441887        -2.16934728E-04
   19.9287186        -2.17033143E-04
   20.0132465        -2.16914486E-04
   20.0977745        -2.16602770E-04
   20.1823025        -2.16123139E-04
   20.2668324        -2.15501714E-04
   20.3513603        -2.14764979E-04
   20.4358883        -2.13939711E-04
   20.5204163        -2.13052190E-04
   20.6049442        -2.12128100E-04
   20.6894741        -2.11192004E-04
   20.7740021        -2.10266910E-04
   20.8585300        -2.09374179E-04
   20.9430580        -2.08533020E-04
   21.0275879        -2.07760357E-04
   21.1121159        -2.07070756E-04
   21.1966438        -2.06476092E-04
   21.2811718        -2.05985765E-04
   21.3657017        -2.05606353E-04
   21.4502296        -2.05342309E-04
   21.5347576        -2.05195334E-04
   21.6192856        -2.05165139E-04
   21.7038155        -2.05249380E-04
   21.7883434        -2.05444157E-04
   21.8728714        -2.05743869E-04
   21.9573994        -2.06142038E-04
   22.0419292        -2.06631375E-04
   22.1264572        -2.07203979E-04
   22.2109852        -2.07851888E-04
   22.2955132        -2.08567057E-04
   22.3800430        -2.09341888E-04
   22.4645710        -2.10169295E-04
   22.5490990        -2.11042890E-04
   22.6336269        -2.11957056E-04
   22.7181568        -2.12907209E-04
   22.8026848        -2.13889638E-04
   22.8872128        -2.14901534E-04
   22.9717407        -2.15941036E-04
   23.0562706        -2.17007051E-04
   23.1407986        -2.18099187E-04
   23.2253265        -2.19217531E-04
   23.3098545        -2.20362665E-04
   23.3943844        -2.21535476E-04
   23.4789124        -2.22736766E-04
   23.5634403        -2.23967669E-04
   23.6479683        -2.25228883E-04
   23.7324982        -2.26521253E-04
   23.8170261        -2.27845361E-04
   23.9015541        -2.29201527E-04
   23.9860821        -2.30590085E-04
   24.0706100        -2.32011254E-04
   24.1551399        -2.33465267E-04
   24.2396679        -2.34952589E-04
   24.3241959        -2.36474065E-04
   24.4087238        -2.38030902E-04
   24.4932537        -2.39625064E-04
   24.5777817        -2.41259113E-04
   24.6623096        -2.42936541E-04
   24.7468376        -2.44661700E-04
   24.8313675        -2.46439769E-04
   24.9158955        -2.48276978E-04
   25.0004234        -2.50180281E-04
   25.0849514        -2.52156984E-04
   25.1694813        -2.54215178E-04
   25.2540092        -2.56362924E-04
   25.3385372        -2.58607964E-04
   25.4230652        -2.60957750E-04
   25.5075951        -2.63418449E-04
   25.5921230        -2.65995128E-04
   25.6766510        -2.68691161E-04
   25.7611790        -2.71507481E-04
   25.8457088        -2.74442486E-04
   25.9302368        -2.77491868E-04
   26.0147648        -2.80648062E-04
   26.0992928        -2.83900066E-04
   26.1838226        -2.87233561E-04
   26.2683506        -2.90630414E-04
   26.3528786        -2.94069439E-04
   26.4374065        -2.97526072E-04
   26.5219364        -3.00972664E-04
   26.6064644        -3.04379413E-04
   26.6909924        -3.07714188E-04
   26.7755203        -3.10943899E-04
   26.8600502        -3.14034551E-04
   26.9445782        -3.16952268E-04
   27.0291061        -3.19664396E-04
   27.1136341        -3.22139676E-04
   27.1981640        -3.24349996E-04
   27.2826920        -3.26270296E-04
   27.3672199        -3.27880203E-04
   27.4517479        -3.29163973E-04
   27.5362759        -3.30111885E-04
   27.6208057        -3.30720562E-04
   27.7053337        -3.30992945E-04
   27.7898617        -3.30939336E-04
   27.8743896        -3.30577139E-04
   27.9589195        -3.29930888E-04
   28.0434475        -3.29032453E-04
   28.1279755        -3.27920105E-04
   28.2125034        -3.26638925E-04
   28.2970333        -3.25239496E-04
   28.3815613        -3.23777989E-04
   28.4660892        -3.22314503E-04
   28.5506172        -3.20913008E-04
   28.6351471        -3.19639599E-04
   28.7196751        -3.18562175E-04
   28.8042030        -3.17749043E-04
   28.8887310        -3.17268044E-04
   28.9732609        -3.17185157E-04
   29.0577888        -3.17564409E-04
   29.1423168        -3.18465958E-04
   29.2268448        -3.19945655E-04
   29.3113747        -3.22054693E-04
   29.3959026        -3.24838387E-04
   29.4804306        -3.28335911E-04
   29.5649586        -3.32580035E-04
   29.6494884        -3.37596925E-04
   29.7340164        -3.43405409E-04
   29.8185444        -3.50017537E-04
   29.9030724        -3.57438723E-04
   29.9876022        -3.65667482E-04
   30.0721302        -3.74695956E-04
   30.1566582        -3.84510029E-04
   30.2411861        -3.95089766E-04
   30.3257160        -4.06410196E-04
   30.4102440        -4.18441428E-04
   30.4947720        -4.31148568E-04
   30.5792999        -4.44493198E-04
   30.6638298        -4.58433380E-04
   30.7483578        -4.72923508E-04
   30.8328857        -4.87915764E-04
   30.9174137        -5.03359362E-04
   31.0019417        -5.19201509E-04
   31.0864716        -5.35387546E-04
   31.1709995        -5.51860663E-04
   31.2555275        -5.68563060E-04
   31.3400555        -5.85434900E-04
   31.4245853        -6.02415006E-04
   31.5091133        -6.19440863E-04
   31.5936413        -6.36448385E-04
   31.6781693        -6.53371913E-04
   31.7626991        -6.70144393E-04
   31.8472271        -6.86697080E-04
   31.9317551        -7.02960126E-04
   32.0162849        -7.18861469E-04
   32.1008110        -7.34328234E-04
   32.1853409        -7.49285799E-04
   32.2698708        -7.63658900E-04
   32.3543968        -7.77370995E-04
   32.4389267        -7.90344842E-04
   32.5234528        -8.02503549E-04
   32.6079826        -8.13770108E-04
   32.6925125        -8.24068557E-04
   32.7770386        -8.33324040E-04
   32.8615685        -8.41464149E-04
   32.9460983        -8.48419208E-04
   33.0306244        -8.54122860E-04
   33.1151543        -8.58513289E-04
   33.1996803        -8.61534383E-04
   33.2842102        -8.63135036E-04
   33.3687401        -8.63271998E-04
   33.4532661        -8.61909357E-04
   33.5377960        -8.59019754E-04
   33.6223259        -8.54585029E-04
   33.7068520        -8.48597498E-04
   33.7913818        -8.41059256E-04
   33.8759079        -8.31984449E-04
   33.9604378        -8.21397931E-04
   34.0449677        -8.09336489E-04
   34.1294937        -7.95849017E-04
   34.2140236        -7.80995993E-04
   34.2985535        -7.64850643E-04
   34.3830795        -7.47496320E-04
   34.4676094        -7.29028427E-04
   34.5521355        -7.09552434E-04
   34.6366653        -6.89183595E-04
   34.7211952        -6.68045948E-04
   34.8057213        -6.46271044E-04
   34.8902512        -6.23997417E-04
   34.9747772        -6.01368432E-04
   35.0593071        -5.78531122E-04
   35.1438370        -5.55635314E-04
   35.2283630        -5.32830833E-04
   35.3128929        -5.10266749E-04
   35.3974228        -4.88089485E-04
   35.4819489        -4.66440630E-04
   35.5664787        -4.45455807E-04
   35.6510048        -4.25262318E-04
   35.7355347        -4.05978353E-04
   35.8200645        -3.87710315E-04
   35.9045906        -3.70552560E-04
   35.9891205        -3.54585121E-04
   36.0736504        -3.39873368E-04
   36.1581764        -3.26466310E-04
   36.2427063        -3.14396602E-04
   36.3272324        -3.03679612E-04
   36.4117622        -2.94313359E-04
   36.4962921        -2.86278490E-04
   36.5808182        -2.79538595E-04
   36.6653481        -2.74040853E-04
   36.7498779        -2.69716751E-04
   36.8344040        -2.66483199E-04
   36.9189339        -2.64243892E-04
   37.0034599        -2.62890710E-04
   37.0879898        -2.62305693E-04
   37.1725197        -2.62362650E-04
   37.2570457        -2.62929534E-04
   37.3415756        -2.63870083E-04
   37.4261055        -2.65046518E-04
   37.5106316        -2.66321440E-04
   37.5951614        -2.67560215E-04
   37.6796875        -2.68632750E-04
   37.7642174        -2.69415963E-04
   37.8487473        -2.69795448E-04
   37.9332733        -2.69667158E-04
   38.0178032        -2.68939213E-04
   38.1023293        -2.67532829E-04
   38.1868591        -2.65383715E-04
   38.2713890        -2.62442802E-04
   38.3559151        -2.58676737E-04
   38.4404449        -2.54068291E-04
   38.5249748        -2.48616358E-04
   38.6095009        -2.42335605E-04
   38.6940308        -2.35256230E-04
   38.7785568        -2.27423094E-04
   38.8630867        -2.18894740E-04
   38.9476166        -2.09742473E-04
   39.0321426        -2.00048744E-04
   39.1166725        -1.89906088E-04
   39.2012024        -1.79415190E-04
   39.2857285        -1.68683400E-04
   39.3702583        -1.57823059E-04
   39.4547844        -1.46949431E-04
   39.5393143        -1.36179355E-04
   39.6238441        -1.25629085E-04
   39.7083702        -1.15412724E-04
   39.7929001        -1.05640582E-04
   39.8774300        -9.64174542E-05
   39.9619560        -8.78412029E-05
   40.0464859        -8.00013513E-05
   40.1310120        -7.29778840E-05
   40.2155418        -6.68400098E-05
   40.3000717        -6.16453472E-05
   40.3845978        -5.74390724E-05
   40.4691277        -5.42533271E-05
   40.5536575        -5.21067996E-05
   40.6381836        -5.10044665E-05
   40.7227135        -5.09375677E-05
   40.8072395        -5.18837405E-05
   40.8917694        -5.38073109E-05
   40.9762993        -5.66598501E-05
   41.0608253        -6.03807421E-05
   41.1453552        -6.48981440E-05
   41.2298851        -7.01298632E-05
   41.3144112        -7.59845425E-05
   41.3989410        -8.23628434E-05
   41.4834671        -8.91588061E-05
   41.5679970        -9.62612758E-05
   41.6525269        -1.03555380E-04
   41.7370529        -1.10924033E-04
   41.8215828        -1.18249533E-04
   41.9061089        -1.25414997E-04
   41.9906387        -1.32306057E-04
   42.0751686        -1.38812073E-04
   42.1596947        -1.44827791E-04
   42.2442245        -1.50254491E-04
   42.3287544        -1.55001326E-04
   42.4132805        -1.58986295E-04
   42.4978104        -1.62137323E-04
   42.5823364        -1.64393001E-04
   42.6668663        -1.65703401E-04
   42.7513962        -1.66030455E-04
   42.8359222        -1.65348436E-04
   42.9204521        -1.63644130E-04
   43.0049820        -1.60916999E-04
   43.0895081        -1.57178976E-04
   43.1740379        -1.52454420E-04
   43.2585640        -1.46779625E-04
   43.3430939        -1.40202494E-04
   43.4276237        -1.32781890E-04
   43.5121498        -1.24586979E-04
   43.5966797        -1.15696508E-04
   43.6812096        -1.06197789E-04
   43.7657356        -9.61859841E-05
   43.8502655        -8.57629493E-05
   43.9347916        -7.50361287E-05
   44.0193214        -6.41174920E-05
   44.1038513        -5.31223777E-05
   44.1883774        -4.21681507E-05
   44.2729073        -3.13730379E-05
   44.3574371        -2.08548136E-05
   44.4419632        -1.07294800E-05
   44.5264931        -1.11003033E-06
   44.6110191         7.89486876E-06
   44.6955490         1.61821554E-05
   44.7800789         2.36555043E-05
   44.8646049         3.02265544E-05
   44.9491348         3.58159305E-05
   45.0336647         4.03542726E-05
   45.1181908         4.37831077E-05
   45.2027206         4.60555821E-05
   45.2872467         4.71371495E-05
   45.3717766         4.70060295E-05
   45.4563065         4.56535090E-05
   45.5408325         4.30841756E-05
   45.6253624         3.93158480E-05
   45.7098885         3.43794891E-05
   45.7944183         2.83188092E-05
   45.8789482         2.11898041E-05
   45.9634743         1.30600856E-05
   46.0480042         4.00809313E-06
   46.1325340        -5.87787508E-06
   46.2170601        -1.65006531E-05
   46.3015900        -2.77554500E-05
   46.3861160        -3.95310162E-05
   46.4706459        -5.17110202E-05
   46.5551758        -6.41753431E-05
   46.6397018        -7.68015816E-05
   46.7242317        -8.94663026E-05
   46.8087616        -1.02046528E-04
   46.8932877        -1.14421062E-04
   46.9778175        -1.26471830E-04
   47.0623436        -1.38085175E-04
   47.1468735        -1.49152984E-04
   47.2314034        -1.59573799E-04
   47.3159294        -1.69254010E-04
   47.4004593        -1.78108457E-04
   47.4849892        -1.86061676E-04
   47.5695152        -1.93048079E-04
   47.6540451        -1.99012953E-04
   47.7385712        -2.03912758E-04
   47.8231010        -2.07715420E-04
   47.9076309        -2.10400598E-04
   47.9921570        -2.11959778E-04
   48.0766869        -2.12396131E-04
   48.1612167        -2.11724589E-04
   48.2457428        -2.09971360E-04
   48.3302727        -2.07173740E-04
   48.4147987        -2.03379619E-04
   48.4993286        -1.98646827E-04
   48.5838585        -1.93042753E-04
   48.6683846        -1.86643461E-04
   48.7529144        -1.79532974E-04
   48.8374405        -1.71802385E-04
   48.9219704        -1.63549106E-04
   49.0065002        -1.54875757E-04
   49.0910263        -1.45889135E-04
   49.1755562        -1.36699309E-04
   49.2600861        -1.27418389E-04
   49.3446121        -1.18159362E-04
   49.4291420        -1.09035005E-04
   49.5136681        -1.00156576E-04
   49.5981979        -9.16326462E-05
   49.6827278        -8.35678802E-05
   49.7672539        -7.60618641E-05
   49.8517838        -6.92078975E-05
   49.9363136        -6.30918294E-05
   50.0208397        -5.77910942E-05
   50.1053696        -5.33736384E-05
   50.1898956        -4.98971021E-05
   50.2744255        -4.74079607E-05
   50.3589554        -4.59409566E-05
   50.4434814        -4.55185218E-05
   50.5280113        -4.61504533E-05
   50.6125412        -4.78336842E-05
   50.6970673        -5.05522657E-05
   50.7815971        -5.42774978E-05
   50.8661232        -5.89682677E-05
   50.9506531        -6.45714754E-05
   51.0351830        -7.10227760E-05
   51.1197090        -7.82473653E-05
   51.2042389        -8.61609369E-05
   51.2887688        -9.46708606E-05
   51.3732948        -1.03677463E-04
   51.4578247        -1.13075279E-04
   51.5423508        -1.22754645E-04
   51.6268806        -1.32603105E-04
   51.7114105        -1.42507110E-04
   51.7959366        -1.52353517E-04
   51.8804665        -1.62030963E-04
   51.9649963        -1.71431922E-04
   52.0495224        -1.80453528E-04
   52.1340523        -1.88999446E-04
   52.2185783        -1.96980953E-04
   52.3031082        -2.04317985E-04
   52.3876381        -2.10940256E-04
   52.4721642        -2.16788088E-04
   52.5566940        -2.21812938E-04
   52.6412201        -2.25977943E-04
   52.7257500        -2.29258163E-04
   52.8102798        -2.31640704E-04
   52.8948059        -2.33124490E-04
   52.9793358        -2.33720057E-04
   53.0638657        -2.33449173E-04
   53.1483917        -2.32344028E-04
   53.2329216        -2.30446545E-04
   53.3174477        -2.27807584E-04
   53.4019775        -2.24485775E-04
   53.4865074        -2.20546674E-04
   53.5710335        -2.16061366E-04
   53.6555634        -2.11105347E-04
   53.7400932        -2.05757431E-04
   53.8246193        -2.00098453E-04
   53.9091492        -1.94210006E-04
   53.9936752        -1.88173362E-04
   54.0782051        -1.82068412E-04
   54.1627350        -1.75972498E-04
   54.2472610        -1.69959560E-04
   54.3317909        -1.64099140E-04
   54.4163208        -1.58455732E-04
   54.5008469        -1.53088127E-04
   54.5853767        -1.48048595E-04
   54.6699028        -1.43382873E-04
   54.7544327        -1.39129479E-04
   54.8389626        -1.35319671E-04
   54.9234886        -1.31977315E-04
   55.0080185        -1.29118911E-04
   55.0925484        -1.26753701E-04
   55.1770744        -1.24883940E-04
   55.2616043        -1.23505102E-04
   55.3461304        -1.22606420E-04
   55.4306602        -1.22171332E-04
   55.5151901        -1.22177895E-04
   55.5997162        -1.22599566E-04
   55.6842461        -1.23405727E-04
   55.7687759        -1.24562401E-04
   55.8533020        -1.26032886E-04
   55.9378319        -1.27778534E-04
   56.0223579        -1.29759384E-04
   56.1068878        -1.31934838E-04
   56.1914177        -1.34264439E-04
   56.2759438        -1.36708302E-04
   56.3604736        -1.39227821E-04
   56.4449997        -1.41786164E-04
   56.5295296        -1.44348829E-04
   56.6140594        -1.46883889E-04
   56.6985855        -1.49362560E-04
   56.7831154        -1.51759290E-04
   56.8676453        -1.54052061E-04
   56.9521713        -1.56222610E-04
   57.0367012        -1.58256255E-04
   57.1212273        -1.60142241E-04
   57.2057571        -1.61873293E-04
   57.2902870        -1.63445715E-04
   57.3748131        -1.64859142E-04
   57.4593430        -1.66116210E-04
   57.5438728        -1.67222446E-04
   57.6283989        -1.68185623E-04
   57.7129288        -1.69015737E-04
   57.7974548        -1.69724401E-04
   57.8819847        -1.70324478E-04
   57.9665146        -1.70829808E-04
   58.0510406        -1.71254578E-04
   58.1355705        -1.71613239E-04
   58.2201004        -1.71919775E-04
   58.3046265        -1.72187749E-04
   58.3891563        -1.72429704E-04
   58.4736824        -1.72657019E-04
   58.5582123        -1.72879649E-04
   58.6427422        -1.73105916E-04
   58.7272682        -1.73342414E-04
   58.8117981        -1.73593857E-04
   58.8963280        -1.73863024E-04
   58.9808540        -1.74150860E-04
   59.0653839        -1.74456392E-04
   59.1499100        -1.74776942E-04
   59.2344398        -1.75108173E-04
   59.3189697        -1.75444307E-04
   59.4034958        -1.75778376E-04
   59.4880257        -1.76102389E-04
   59.5725517        -1.76407702E-04
   59.6570816        -1.76685251E-04
   59.7416115        -1.76925867E-04
   59.8261375        -1.77120470E-04
   59.9106674        -1.77260736E-04
   59.9951973        -1.77338923E-04
   60.0797234        -1.77348556E-04
   60.1642532        -1.77284441E-04
   60.2487793        -1.77143083E-04
   60.3333092        -1.76922753E-04
   60.4178391        -1.76623726E-04
   60.5023651        -1.76248475E-04
   60.5868950        -1.75801557E-04
   60.6714249        -1.75289751E-04
   60.7559509        -1.74722038E-04
   60.8404808        -1.74109518E-04
   60.9250069        -1.73465145E-04
   61.0095367        -1.72803673E-04
   61.0940666        -1.72141314E-04
   61.1785927        -1.71495427E-04
   61.2631226        -1.70884319E-04
   61.3476524        -1.70326719E-04
   61.4321785        -1.69841485E-04
   61.5167084        -1.69447216E-04
   61.6012344        -1.69161605E-04
   61.6857643        -1.69001374E-04
   61.7702942        -1.68981613E-04
   61.8548203        -1.69115359E-04
   61.9393501        -1.69413543E-04
   62.0238800        -1.69884137E-04
   62.1084061        -1.70532439E-04
   62.1929359        -1.71360327E-04
   62.2774620        -1.72366461E-04
   62.3619919        -1.73545792E-04
   62.4465218        -1.74889850E-04
   62.5310478        -1.76386398E-04
   62.6155777        -1.78019822E-04
   62.7001076        -1.79770970E-04
   62.7846336        -1.81617535E-04
   62.8691635        -1.83534299E-04
   62.9536896        -1.85493423E-04
   63.0382195        -1.87464888E-04
   63.1227493        -1.89416853E-04
   63.2072754        -1.91316212E-04
   63.2918053        -1.93129235E-04
   63.3763313        -1.94821929E-04
   63.4608612        -1.96360648E-04
   63.5453911        -1.97712769E-04
   63.6299171        -1.98847192E-04
   63.7144470        -1.99734932E-04
   63.7989769        -2.00349619E-04
   63.8835030        -2.00667942E-04