  -4.50000000         0.00000000    
  -4.41547155         0.00000000    
  -4.33094311         0.00000000    
  -4.24641466         0.00000000    
  -4.16188622        -1.79846481E-24
  -4.07735777        -1.36974615E-25
  -3.99282932         9.75296379E-23
  -3.90830088         7.28945998E-22
  -3.82377243         3.08841836E-21
  -3.73924398         9.07791948E-21
  -3.65471554         1.90270039E-20
  -3.57018733         2.42638747E-20
  -3.48565888        -7.85590553E-21
  -3.40113044        -1.54243632E-19
  -3.31660199        -5.49149441E-19
  -3.23207355        -1.36321019E-18
  -3.14754510        -2.71107391E-18
  -3.06301665        -4.45668784E-18
  -2.97848821        -5.92356858E-18
  -2.89395976        -5.59374313E-18
  -2.80943131        -9.79766174E-19
  -2.72490287         1.10625365E-17
  -2.64037442         3.33126941E-17
  -2.55584598         6.63391440E-17
  -2.47131753         1.06047744E-16
  -2.38678908         1.41325740E-16
  -2.30226064         1.52961008E-16
  -2.21773219         1.15266004E-16
  -2.13320374         1.59259017E-18
  -2.04867530        -2.05979050E-16
  -1.96414697        -5.04034526E-16
  -1.87961853        -8.55411638E-16
  -1.79509008        -1.18165892E-15
  -1.71056163        -1.36557815E-15
  -1.62603319        -1.26791769E-15
  -1.54150474        -7.59191184E-16
  -1.45697629         2.37049714E-16
  -1.37244797         1.69826474E-15
  -1.28791952         3.46704498E-15
  -1.20339108         5.23920329E-15
  -1.11886263         6.58689030E-15
  -1.03433418         7.02088034E-15
 -0.949805737         6.08650517E-15
 -0.865277290         3.47766444E-15
 -0.780748844        -8.53907308E-16
 -0.696220458        -6.61904283E-15
 -0.611692011        -1.31617993E-14
 -0.527163565        -1.94914106E-14
 -0.442635119        -2.43746470E-14
 -0.358106703        -2.64778383E-14
 -0.273578256        -2.45427949E-14
 -0.189049825        -1.75831233E-14
 -0.104521386        -5.09291773E-15
  -1.99929532E-02     1.27349489E-14
   6.45354837E-02     3.47875855E-14
  0.149063915         5.88315136E-14
  0.233592346         8.13867338E-14
  0.318120778         9.77657828E-14
  0.402649224         1.02393497E-13
  0.487177670         8.95177487E-14
  0.571706116         5.43667894E-14
  0.656234503        -5.30436384E-15
  0.740762949        -8.74956981E-14
  0.825291395        -1.84462458E-13
  0.909819841        -2.81958539E-13
  0.994348288        -3.59777881E-13
   1.07887673        -3.94023627E-13
   1.16340518        -3.61228300E-13
   1.24793363        -2.43981566E-13
   1.33246195        -3.71800538E-14
   1.41699040         2.46474770E-13
   1.50151885         5.73383355E-13
   1.58604729         8.89928973E-13
   1.67057574         1.12837430E-12
   1.75510418         1.21784874E-12
   1.83963263         1.09924136E-12
   1.92416108         7.41499039E-13
   2.00868940         1.55820506E-13
   2.09321785        -5.96168568E-13
   2.17774630        -1.40366906E-12
   2.26227474        -2.11934897E-12
   2.34680319        -2.58305400E-12
   2.43133163        -2.65356812E-12
   2.51586008        -2.24287082E-12
   2.60038853        -1.34560386E-12
   2.68491697        -5.61551436E-14
   2.76944542         1.43283042E-12
   2.85397387         2.85354921E-12
   2.93850231         3.90642336E-12
   3.02303076         4.31760964E-12
   3.10755920         3.90035400E-12
   3.19208765         2.60748172E-12
   3.27661610         5.62483979E-13
   3.36114454        -1.94036931E-12
   3.44567299        -4.47085034E-12
   3.53020120        -6.52941243E-12
   3.61472964        -7.63530385E-12
   3.69925809        -7.42012875E-12
   3.78378654        -5.70832227E-12
   3.86831498        -2.56720101E-12
   3.95284343         1.68530023E-12
   4.03737211         6.51881500E-12
   4.12190056         1.12684861E-11
   4.20642900         1.52377538E-11
   4.29095745         1.78052920E-11
   4.37548542         1.85144573E-11
   4.46001387         1.71278079E-11
   4.54454231         1.36380187E-11
   4.62907076         8.23792250E-12
   4.71359921         1.26312112E-12
   4.79812765        -6.87135548E-12
   4.88265610        -1.57173528E-11
   4.96718454        -2.48048006E-11
   5.05171299        -3.36112908E-11
   5.13624144        -4.14987905E-11
   5.22076988        -4.76416094E-11
   5.30529833        -5.09807405E-11
   5.38982677        -5.02420744E-11
   5.47435522        -4.40479875E-11
   5.55888367        -3.11328602E-11
   5.64341211        -1.06471446E-11
   5.72794056         1.74945544E-11
   5.81246901         5.22892736E-11
   5.89699745         9.14261306E-11
   5.98152590         1.31248151E-10
   6.06605434         1.66950079E-10
   6.15058279         1.93027913E-10
   6.23511124         2.03947664E-10
   6.31963968         1.94951763E-10
   6.40416813         1.62881625E-10
   6.48869658         1.06875599E-10
   6.57322502         2.88076455E-11
   6.65775347        -6.66345520E-11
   6.74228191        -1.72277123E-10
   6.82681036        -2.79167633E-10
   6.91133881        -3.77569115E-10
   6.99586725        -4.58088956E-10
   7.08039570        -5.12765164E-10
   7.16492414        -5.35934408E-10
   7.24945259        -5.24746691E-10
   7.33398104        -4.79258133E-10
   7.41850948        -4.02112454E-10
   7.50303793        -2.97903563E-10
   7.58756638        -1.72369952E-10
   7.67209482        -3.16006145E-11
   7.75662327         1.18577356E-10
   7.84115171         2.72907863E-10
   7.92567968         4.26662178E-10
   8.01020813         5.75283599E-10
   8.09473705         7.13836323E-10
   8.17926502         8.36430980E-10
   8.26379395         9.35815092E-10
   8.34832191         1.00329312E-09
   8.43285084         1.02907305E-09
   8.51737881         1.00305608E-09
   8.60190773         9.15984455E-10
   8.68643570         7.60789376E-10
   8.77096462         5.33925459E-10
   8.85549259         2.36474007E-10
   8.94002151        -1.25168126E-10
   9.02454948        -5.39130074E-10
   9.10907841        -9.88461424E-10
   9.19360638        -1.45201273E-09
   9.27813530        -1.90566052E-09
   9.36266327        -2.32369413E-09
   9.44719219        -2.68017586E-09
   9.53172016        -2.95012326E-09
   9.61624908        -3.11042170E-09
   9.70077705        -3.14044146E-09
   9.78530502        -3.02241254E-09
   9.86983395        -2.74163714E-09
   9.95436192        -2.28665220E-09
   10.0388908        -1.64942504E-09
   10.1234188        -8.25632174E-10
   10.2079477         1.84992618E-10
   10.2924757         1.37830369E-09
   10.3770046         2.74549494E-09
   10.4615326         4.27306990E-09
   10.5460615         5.94316241E-09
   10.6305895         7.73427900E-09
   10.7151184         9.62249036E-09
   10.7996464         1.15830954E-08
   10.8841753         1.35926514E-08
   10.9687033         1.56313380E-08
   11.0532322         1.76855544E-08
   11.1377602         1.97506882E-08
   11.2222891         2.18339640E-08
   11.3068171         2.39574014E-08
   11.3913460         2.61607145E-08
   11.4758739         2.85041484E-08
   11.5604029         3.10710426E-08
   11.6449308         3.39699007E-08
   11.7294598         3.73355924E-08
   11.8139877         4.13293435E-08
   11.8985167         4.61370107E-08
   11.9830446         5.19651486E-08
   12.0675735         5.90345977E-08
   12.1521015         6.75711860E-08
   12.2366304         7.77935085E-08
   12.3211584         8.98979167E-08
   12.4056873         1.04041227E-07
   12.4902153         1.20321488E-07
   12.5747442         1.38758210E-07
   12.6592722         1.59272844E-07
   12.7438011         1.81670799E-07
   12.8283291         2.05626904E-07
   12.9128580         2.30675155E-07
   12.9973860         2.56205169E-07
   13.0819149         2.81465930E-07
   13.1664429         3.05578624E-07
   13.2509708         3.27559974E-07
   13.3354998         3.46356586E-07
   13.4200277         3.60891562E-07
   13.5045567         3.70123047E-07
   13.5890846         3.73116052E-07
   13.6736135         3.69125871E-07
   13.7581415         3.57693978E-07
   13.8426704         3.38754859E-07
   13.9271984         3.12752178E-07
   14.0117273         2.80764084E-07
   14.0962553         2.44634009E-07
   14.1807842         2.07106311E-07
   14.2653122         1.71962583E-07
   14.3498411         1.44156772E-07
   14.4343691         1.29944581E-07
   14.5188980         1.37003155E-07
   14.6034260         1.74536993E-07
   14.6879549         2.53366039E-07
   14.7724829         3.85988471E-07
   14.8570118         5.86617773E-07
   14.9415398         8.71185705E-07
   15.0260687         1.25730810E-06
   15.1105967         1.76421008E-06
   15.1951256         2.41261068E-06
   15.2796535         3.22455958E-06
   15.3641825         4.22323137E-06
   15.4487104         5.43267015E-06
   15.5332394         6.87749389E-06
   15.6177673         8.58256044E-06
   15.7022963         1.05725858E-05
   15.7868242         1.28717429E-05
   15.8713531         1.55032194E-05
   15.9558811         1.84887649E-05
   16.0404091         2.18482273E-05
   16.1249390         2.55990744E-05
   16.2094669         2.97559363E-05
   16.2939949         3.43301326E-05
   16.3785229         3.93292648E-05
   16.4630527         4.47568382E-05
   16.5475807         5.06118740E-05
   16.6321087         5.68886426E-05
   16.7166367         6.35764518E-05
   16.8011646         7.06594437E-05
   16.8856945         7.81165436E-05
   16.9702225         8.59214560E-05
   17.0547504         9.40427417E-05
   17.1392784         1.02443890E-04
   17.2238083         1.11083798E-04
   17.3083363         1.19916825E-04
   17.3928642         1.28893415E-04
   17.4773922         1.37960509E-04
   17.5619221         1.47062063E-04
   17.6464500         1.56139737E-04
   17.7309780         1.65133446E-04
   17.8155060         1.73982189E-04
   17.9000359         1.82624761E-04
   17.9845638         1.91000421E-04
   18.0690918         1.99049711E-04
   18.1536198         2.06715122E-04
   18.2381496         2.13941938E-04
   18.3226776         2.20678747E-04
   18.4072056         2.26878212E-04
   18.4917336         2.32497448E-04
   18.5762634         2.37498840E-04
   18.6607914         2.41850168E-04
   18.7453194         2.45525065E-04
   18.8298473         2.48503376E-04
   18.9143772         2.50771176E-04
   18.9989052         2.52321042E-04
   19.0834332         2.53151986E-04
   19.1679611         2.53269274E-04
   19.2524910         2.52684666E-04
   19.3370190         2.51415739E-04
   19.4215469         2.49485951E-04
   19.5060749         2.46924115E-04
   19.5906048         2.43764094E-04
   19.6751328         2.40044348E-04
   19.7596607         2.35807398E-04
   19.8441887         2.31099271E-04
   19.9287186         2.25969081E-04
   20.0132465         2.20468413E-04
   20.0977745         2.14650747E-04
   20.1823025         2.08570767E-04
   20.2668324         2.02284151E-04
   20.3513603         1.95846558E-04
   20.4358883         1.89313316E-04
   20.5204163         1.82739037E-04
   20.6049442         1.76176793E-04
   20.6894741         1.69677864E-04
   20.7740021         1.63291144E-04
   20.8585300         1.57062896E-04
   20.9430580         1.51036103E-04
   21.0275879         1.45250364E-04
   21.1121159         1.39741431E-04
   21.1966438         1.34540955E-04
   21.2811718         1.29676235E-04
   21.3657017         1.25170132E-04
   21.4502296         1.21040721E-04
   21.5347576         1.17301519E-04
   21.6192856         1.13961090E-04
   21.7038155         1.11023255E-04
   21.7883434         1.08487257E-04
   21.8728714         1.06347528E-04
   21.9573994         1.04594299E-04
   22.0419292         1.03213424E-04
   22.1264572         1.02186801E-04
   22.2109852         1.01492762E-04
   22.2955132         1.01106285E-04
   22.3800430         1.00999612E-04
   22.4645710         1.01142316E-04
   22.5490990         1.01502083E-04
   22.6336269         1.02045116E-04
   22.7181568         1.02736747E-04
   22.8026848         1.03541708E-04
   22.8872128         1.04424791E-04
   22.9717407         1.05351552E-04
   23.0562706         1.06288731E-04
   23.1407986         1.07204483E-04
   23.2253265         1.08069500E-04
   23.3098545         1.08856606E-04
   23.3943844         1.09541870E-04
   23.4789124         1.10104731E-04
   23.5634403         1.10528039E-04
   23.6479683         1.10798872E-04
   23.7324982         1.10908084E-04
   23.8170261         1.10850713E-04
   23.9015541         1.10626235E-04
   23.9860821         1.10238158E-04
   24.0706100         1.09694076E-04
   24.1551399         1.09005596E-04
   24.2396679         1.08187727E-04
   24.3241959         1.07259257E-04
   24.4087238         1.06241409E-04
   24.4932537         1.05158353E-04
   24.5777817         1.04036320E-04
   24.6623096         1.02903010E-04
   24.7468376         1.01786994E-04
   24.8313675         1.00717647E-04
   24.9158955         9.97240932E-05
   25.0004234         9.88348547E-05
   25.0849514         9.80770783E-05
   25.1694813         9.74764916E-05
   25.2540092         9.70563851E-05
   25.3385372         9.68373497E-05
   25.4230652         9.68369495E-05
   25.5075951         9.70693727E-05
   25.5921230         9.75451694E-05
   25.6766510         9.82710844E-05
   25.7611790         9.92498753E-05
   25.8457088         1.00480509E-04
   25.9302368         1.01957979E-04
   26.0147648         1.03673818E-04
   26.0992928         1.05616127E-04
   26.1838226         1.07769782E-04
   26.2683506         1.10117231E-04
   26.3528786         1.12638350E-04
   26.4374065         1.15311610E-04
   26.5219364         1.18114091E-04
   26.6064644         1.21022182E-04
   26.6909924         1.24012047E-04
   26.7755203         1.27060441E-04
   26.8600502         1.30144486E-04
   26.9445782         1.33243055E-04
   27.0291061         1.36336632E-04
   27.1136341         1.39407653E-04
   27.1981640         1.42441088E-04
   27.2826920         1.45424405E-04
   27.3672199         1.48347885E-04
   27.4517479         1.51204498E-04
   27.5362759         1.53990099E-04
   27.6208057         1.56703070E-04
   27.7053337         1.59344476E-04
   27.7898617         1.61917502E-04
   27.8743896         1.64427431E-04
   27.9589195         1.66881247E-04
   28.0434475         1.69286941E-04
   28.1279755         1.71653432E-04
   28.2125034         1.73990149E-04
   28.2970333         1.76306668E-04
   28.3815613         1.78611939E-04
   28.4660892         1.80914474E-04
   28.5506172         1.83221608E-04
   28.6351471         1.85539000E-04
   28.7196751         1.87871352E-04
   28.8042030         1.90221253E-04
   28.8887310         1.92589330E-04
   28.9732609         1.94974447E-04
   29.0577888         1.97373825E-04
   29.1423168         1.99782720E-04
   29.2268448         2.02194671E-04
   29.3113747         2.04602184E-04
   29.3959026         2.06996527E-04
   29.4804306         2.09368343E-04
   29.5649586         2.11707855E-04
   29.6494884         2.14005398E-04
   29.7340164         2.16251923E-04
   29.8185444         2.18439091E-04
   29.9030724         2.20559828E-04
   29.9876022         2.22608985E-04
   30.0721302         2.24583346E-04
   30.1566582         2.26481556E-04
   30.2411861         2.28305464E-04
   30.3257160         2.30059377E-04
   30.4102440         2.31750280E-04
   30.4947720         2.33388055E-04
   30.5792999         2.34985535E-04
   30.6638298         2.36558146E-04
   30.7483578         2.38123699E-04
   30.8328857         2.39702538E-04
   30.9174137         2.41316608E-04
   31.0019417         2.42989394E-04
   31.0864716         2.44745606E-04
   31.1709995         2.46610463E-04
   31.2555275         2.48609023E-04
   31.3400555         2.50766141E-04
   31.4245853         2.53105565E-04
   31.5091133         2.55649211E-04
   31.5936413         2.58417189E-04
   31.6781693         2.61427020E-04
   31.7626991         2.64693255E-04
   31.8472271         2.68227013E-04
   31.9317551         2.72036006E-04
   32.0162849         2.76123785E-04
   32.1008110         2.80489796E-04
   32.1853409         2.85130111E-04
   32.2698708         2.90035852E-04
   32.3543968         2.95195030E-04
   32.4389267         3.00591142E-04
   32.5234528         3.06204834E-04
   32.6079826         3.12013144E-04
   32.6925125         3.17990518E-04
   32.7770386         3.24108987E-04
   32.8615685         3.30338778E-04
   32.9460983         3.36648518E-04
   33.0306244         3.43005813E-04
   33.1151543         3.49377864E-04
   33.1996803         3.55731958E-04
   33.2842102         3.62035469E-04
   33.3687401         3.68256704E-04
   33.4532661         3.74365365E-04
   33.5377960         3.80331563E-04
   33.6223259         3.86128173E-04
   33.7068520         3.91729409E-04
   33.7913818         3.97110824E-04
   33.8759079         4.02251666E-04
   33.9604378         4.07130661E-04
   34.0449677         4.11729707E-04
   34.1294937         4.16031573E-04
   34.2140236         4.20021126E-04
   34.2985535         4.23684862E-04
   34.3830795         4.27008519E-04
   34.4676094         4.29980020E-04
   34.5521355         4.32587491E-04
   34.6366653         4.34818910E-04
   34.7211952         4.36662696E-04
   34.8057213         4.38106334E-04
   34.8902512         4.39138676E-04
   34.9747772         4.39746596E-04
   35.0593071         4.39917290E-04
   35.1438370         4.39637806E-04
   35.2283630         4.38894407E-04
   35.3128929         4.37673618E-04
   35.3974228         4.35961992E-04
   35.4819489         4.33746434E-04
   35.5664787         4.31014341E-04
   35.6510048         4.27753985E-04
   35.7355347         4.23955149E-04
   35.8200645         4.19608667E-04
   35.9045906         4.14708396E-04
   35.9891205         4.09249478E-04
   36.0736504         4.03230690E-04
   36.1581764         3.96653573E-04
   36.2427063         3.89523077E-04
   36.3272324         3.81848105E-04
   36.4117622         3.73641436E-04
   36.4962921         3.64920066E-04
   36.5808182         3.55704920E-04
   36.6653481         3.46021843E-04
   36.7498779         3.35900520E-04
   36.8344040         3.25375149E-04
   36.9189339         3.14483856E-04
   37.0034599         3.03268869E-04
   37.0879898         2.91776058E-04
   37.1725197         2.80054577E-04
   37.2570457         2.68156669E-04
   37.3415756         2.56137166E-04
   37.4261055         2.44053139E-04
   37.5106316         2.31963262E-04
   37.5951614         2.19927417E-04
   37.6796875         2.08006168E-04
   37.7642174         1.96260124E-04
   37.8487473         1.84749442E-04
   37.9332733         1.73533161E-04
   38.0178032         1.62668846E-04
   38.1023293         1.52211855E-04
   38.1868591         1.42214776E-04
   38.2713890         1.32727073E-04
   38.3559151         1.23794540E-04
   38.4404449         1.15458803E-04
   38.5249748         1.07756947E-04
   38.6095009         1.00721249E-04
   38.6940308         9.43786290E-05
   38.7785568         8.87505157E-05
   38.8630867         8.38526248E-05
   38.9476166         7.96945897E-05
   39.0321426         7.62800191E-05
   39.1166725         7.36062211E-05
   39.2012024         7.16642389E-05
   39.2857285         7.04388949E-05
   39.3702583         6.99087614E-05
   39.4547844         7.00463424E-05
   39.5393143         7.08183434E-05
   39.6238441         7.21858451E-05
   39.7083702         7.41046824E-05
   39.7929001         7.65258737E-05
   39.8774300         7.93960644E-05
   39.9619560         8.26581090E-05
   40.0464859         8.62515881E-05
   40.1310120         9.01136227E-05
   40.2155418         9.41792168E-05
   40.3000717         9.83824211E-05
   40.3845978         1.02656675E-04
   40.4691277         1.06935826E-04
   40.5536575         1.11154783E-04
   40.6381836         1.15250317E-04
   40.7227135         1.19161850E-04
   40.8072395         1.22832163E-04
   40.8917694         1.26208150E-04
   40.9762993         1.29241482E-04
   41.0608253         1.31889217E-04
   41.1453552         1.34114423E-04
   41.2298851         1.35886643E-04
   41.3144112         1.37182331E-04
   41.3989410         1.37985116E-04
   41.4834671         1.38286079E-04
   41.5679970         1.38083764E-04
   41.6525269         1.37384341E-04
   41.7370529         1.36201343E-04
   41.8215828         1.34555536E-04
   41.9061089         1.32474510E-04
   41.9906387         1.29992317E-04
   42.0751686         1.27148902E-04
   42.1596947         1.23989477E-04
   42.2442245         1.20563862E-04
   42.3287544         1.16925636E-04
   42.4132805         1.13131398E-04
   42.4978104         1.09239787E-04
   42.5823364         1.05310617E-04
   42.6668663         1.01403959E-04
   42.7513962         9.75790463E-05
   42.8359222         9.38935846E-05
   42.9204521         9.04026238E-05
   43.0049820         8.71578231E-05
   43.0895081         8.42065274E-05
   43.1740379         8.15911408E-05
   43.2585640         7.93485015E-05
   43.3430939         7.75092121E-05
   43.4276237         7.60972471E-05
   43.5121498         7.51297630E-05
   43.5966797         7.46166406E-05
   43.6812096         7.45606085E-05
   43.7657356         7.49572064E-05
   43.8502655         7.57948437E-05
   43.9347916         7.70552142E-05
   44.0193214         7.87135141E-05
   44.1038513         8.07389879E-05
   44.1883774         8.30954668E-05
   44.2729073         8.57419873E-05
   44.3574371         8.86335911E-05
   44.4419632         9.17219149E-05
   44.5264931         9.49562891E-05
   44.6110191         9.82843703E-05
   44.6955490         1.01653168E-04
   44.7800789         1.05009764E-04
   44.8646049         1.08302396E-04
   44.9491348         1.11481102E-04
   45.0336647         1.14498776E-04
   45.1181908         1.17311625E-04
   45.2027206         1.19880067E-04
   45.2872467         1.22169382E-04
   45.3717766         1.24149985E-04
   45.4563065         1.25798135E-04
   45.5408325         1.27096195E-04
   45.6253624         1.28032669E-04
   45.7098885         1.28602653E-04
   45.7944183         1.28807631E-04
   45.8789482         1.28655491E-04
   45.9634743         1.28160260E-04
   46.0480042         1.27341889E-04
   46.1325340         1.26225801E-04
   46.2170601         1.24842496E-04
   46.3015900         1.23226928E-04
   46.3861160         1.21417899E-04
   46.4706459         1.19457451E-04
   46.5551758         1.17390038E-04
   46.6397018         1.15261777E-04
   46.7242317         1.13119742E-04
   46.8087616         1.11011097E-04
   46.8932877         1.08982305E-04
   46.9778175         1.07078347E-04
   47.0623436         1.05341969E-04
   47.1468735         1.03813036E-04
   47.2314034         1.02527752E-04
   47.3159294         1.01518170E-04
   47.4004593         1.00811711E-04
   47.4849892         1.00430574E-04
   47.5695152         1.00391539E-04
   47.6540451         1.00705802E-04
   47.7385712         1.01378588E-04
   47.8231010         1.02409322E-04
   47.9076309         1.03791594E-04
   47.9921570         1.05513442E-04
   48.0766869         1.07557426E-04
   48.1612167         1.09901062E-04
   48.2457428         1.12517286E-04
   48.3302727         1.15374831E-04
   48.4147987         1.18438933E-04
   48.4993286         1.21671786E-04
   48.5838585         1.25033199E-04
   48.6683846         1.28481493E-04
   48.7529144         1.31973677E-04
   48.8374405         1.35466777E-04
   48.9219704         1.38917967E-04
   49.0065002         1.42285528E-04
   49.0910263         1.45529251E-04
   49.1755562         1.48611187E-04
   49.2600861         1.51496002E-04
   49.3446121         1.54151436E-04
   49.4291420         1.56548718E-04
   49.5136681         1.58662820E-04
   49.5981979         1.60472613E-04
   49.6827278         1.61961099E-04
   49.7672539         1.63115415E-04
   49.8517838         1.63926961E-04
   49.9363136         1.64391065E-04
   50.0208397         1.64507102E-04
   50.1053696         1.64278288E-04
   50.1898956         1.63711316E-04
   50.2744255         1.62816330E-04
   50.3589554         1.61606440E-04
   50.4434814         1.60097625E-04
   50.5280113         1.58308161E-04
   50.6125412         1.56258509E-04
   50.6970673         1.53970963E-04
   50.7815971         1.51469125E-04
   50.8661232         1.48777937E-04
   50.9506531         1.45923099E-04
   51.0351830         1.42930759E-04
   51.1197090         1.39827593E-04
   51.2042389         1.36640170E-04
   51.2887688         1.33395006E-04
   51.3732948         1.30118278E-04
   51.4578247         1.26835686E-04
   51.5423508         1.23572259E-04
   51.6268806         1.20352292E-04
   51.7114105         1.17199204E-04
   51.7959366         1.14135320E-04
   51.8804665         1.11181973E-04
   51.9649963         1.08359171E-04
   52.0495224         1.05685540E-04
   52.1340523         1.03178303E-04
   52.2185783         1.00853089E-04
   52.3031082         9.87237581E-05
   52.3876381         9.68023887E-05
   52.4721642         9.50993126E-05
   52.5566940         9.36227880E-05
   52.6412201         9.23791158E-05
   52.7257500         9.13726399E-05
   52.8102798         9.06055648E-05
   52.8948059         9.00782979E-05
   52.9793358         8.97891005E-05
   53.0638657         8.97343780E-05
   53.1483917         8.99087681E-05
   53.2329216         9.03049586E-05
   53.3174477         9.09142327E-05
   53.4019775         9.17260550E-05
   53.4865074         9.27286092E-05
   53.5710335         9.39087477E-05
   53.6555634         9.52521150E-05
   53.7400932         9.67434098E-05
   53.8246193         9.83664941E-05
   53.9091492         1.00104466E-04
   53.9936752         1.01939986E-04
   54.0782051         1.03855389E-04
   54.1627350         1.05832733E-04
   54.2472610         1.07854030E-04
   54.3317909         1.09901361E-04
   54.4163208         1.11956877E-04
   54.5008469         1.14003000E-04
   54.5853767         1.16022304E-04
   54.6699028         1.17997792E-04
   54.7544327         1.19912671E-04
   54.8389626         1.21750571E-04
   54.9234886         1.23495498E-04
   55.0080185         1.25131846E-04
   55.0925484         1.26644547E-04
   55.1770744         1.28018961E-04
   55.2616043         1.29241118E-04
   55.3461304         1.30297733E-04
   55.4306602         1.31176334E-04
   55.5151901         1.31865352E-04
   55.5997162         1.32354238E-04
   55.6842461         1.32633693E-04
   55.7687759         1.32695670E-04
   55.8533020         1.32533693E-04
   55.9378319         1.32142886E-04
   56.0223579         1.31520137E-04
   56.1068878         1.30664324E-04
   56.1914177         1.29576467E-04
   56.2759438         1.28259795E-04
   56.3604736         1.26719853E-04
   56.4449997         1.24964761E-04
   56.5295296         1.23005171E-04
   56.6140594         1.20854274E-04
   56.6985855         1.18527896E-04
   56.7831154         1.16044423E-04
   56.8676453         1.13424663E-04
   56.9521713         1.10691755E-04
   57.0367012         1.07871005E-04
   57.1212273         1.04989515E-04
   57.2057571         1.02076017E-04
   57.2902870         9.91605411E-05
   57.3748131         9.62739359E-05
   57.4593430         9.34476484E-05
   57.5438728         9.07131180E-05
   57.6283989         8.81015076E-05
   57.7129288         8.56431798E-05
   57.7974548         8.33673257E-05
   57.8819847         8.13015649E-05
   57.9665146         7.94713487E-05
   58.0510406         7.78998874E-05
   58.1355705         7.66075173E-05
   58.2201004         7.56115260E-05
   58.3046265         7.49258688E-05
   58.3891563         7.45607977E-05
   58.4736824         7.45227953E-05
   58.5582123         7.48144084E-05
   58.6427422         7.54340581E-05
   58.7272682         7.63761273E-05
   58.8117981         7.76308880E-05
   58.8963280         7.91847633E-05
   58.9808540         8.10202546E-05
   59.0653839         8.31163488E-05
   59.1499100         8.54488171E-05
   59.2344398         8.79905419E-05
   59.3189697         9.07118520E-05
   59.4034958         9.35811622E-05
   59.4880257         9.65652653E-05
   59.5725517         9.96300078E-05
   59.6570816         1.02740676E-04
   59.7416115         1.05862549E-04
   59.8261375         1.08961445E-04
   59.9106674         1.12004171E-04
   59.9951973         1.14958842E-04
   60.0797234         1.17795600E-04
   60.1642532         1.20486678E-04
   60.2487793         1.23007005E-04
   60.3333092         1.25334380E-04
   60.4178391         1.27449719E-04
   60.5023651         1.29337481E-04
   60.5868950         1.30985456E-04
   60.6714249         1.32385219E-04
   60.7559509         1.33531939E-04
   60.8404808         1.34424379E-04
   60.9250069         1.35064853E-04
   61.0095367         1.35458846E-04
   61.0940666         1.35615017E-04
   61.1785927         1.35544644E-04
   61.2631226         1.35261391E-04
   61.3476524         1.34780872E-04
   61.4321785         1.34120361E-04
   61.5167084         1.33298134E-04
   61.6012344         1.32333371E-04
   61.6857643         1.31245484E-04
   61.7702942         1.30053973E-04
   61.8548203         1.28778032E-04
   61.9393501         1.27436055E-04
   62.0238800         1.26045692E-04
   62.1084061         1.24623228E-04
   62.1929359         1.23183636E-04
   62.2774620         1.21740253E-04
   62.3619919         1.20304605E-04
   62.4465218         1.18886353E-04
   62.5310478         1.17493160E-04
   62.6155777         1.16130759E-04
   62.7001076         1.14802839E-04
   62.7846336         1.13511211E-04
   62.8691635         1.12255933E-04
   62.9536896         1.11035566E-04
   63.0382195         1.09847322E-04
   63.1227493         1.08687367E-04
   63.2072754         1.07551015E-04
   63.2918053         1.06433246E-04
   63.3763313         1.05328807E-04
   63.4608612         1.04232626E-04
   63.5453911         1.03140039E-04
   63.6299171         1.02047030E-04
   63.7144470         1.00950521E-04
   63.7989769         9.98486212E-05
   63.8835030         9.87406456E-05