  -4.50000000         0.00000000    
  -4.41547155         0.00000000    
  -4.33094311         0.00000000    
  -4.24641466         0.00000000    
  -4.16188622        -2.17360638E-25
  -4.07735777         8.04742253E-24
  -3.99282932         1.42244211E-23
  -3.90830088        -3.30446412E-22
  -3.82377243        -2.77741097E-21
  -3.73924398        -1.23837371E-20
  -3.65471554        -3.87467426E-20
  -3.57018733        -9.22913327E-20
  -3.48565888        -1.69188731E-19
  -3.40113044        -2.20703549E-19
  -3.31660199        -1.13398061E-19
  -3.23207355         3.93521767E-19
  -3.14754510         1.60495414E-18
  -3.06301665         3.72279128E-18
  -2.97848821         6.52267730E-18
  -2.89395976         8.91952494E-18
  -2.80943131         8.59142375E-18
  -2.72490287         1.96613821E-18
  -2.64037442        -1.50548013E-17
  -2.55584598        -4.53434505E-17
  -2.47131753        -8.77823124E-17
  -2.38678908        -1.34040132E-16
  -2.30226064        -1.66074560E-16
  -2.21773219        -1.56058144E-16
  -2.13320374        -7.04907502E-17
  -2.04867530         1.20394074E-16
  -1.96414697         4.28320447E-16
  -1.87961853         8.30311829E-16
  -1.79509008         1.25454262E-15
  -1.71056163         1.57519255E-15
  -1.62603319         1.62285520E-15
  -1.54150474         1.21483371E-15
  -1.45697629         2.04990338E-16
  -1.37244797        -1.45365709E-15
  -1.28791952        -3.64726331E-15
  -1.20339108        -6.05923748E-15
  -1.11886263        -8.16814030E-15
  -1.03433418        -9.30114259E-15
 -0.949805737        -8.74839684E-15
 -0.865277290        -5.92853141E-15
 -0.780748844        -5.78559661E-16
 -0.696220458         7.07282464E-15
 -0.611692011         1.61965388E-14
 -0.527163565         2.53629718E-14
 -0.442635119         3.26777552E-14
 -0.358106703         3.60537914E-14
 -0.273578256         3.35872111E-14
 -0.189049825         2.39750931E-14
 -0.104521386         6.89355308E-15
  -1.99929532E-02    -1.67462242E-14
   6.45354837E-02    -4.47273546E-14
  0.149063915        -7.36686713E-14
  0.233592346        -9.93595600E-14
  0.318120778        -1.17228384E-13
  0.402649224        -1.22861018E-13
  0.487177670        -1.12487791E-13
  0.571706116        -8.33882253E-14
  0.656234503        -3.42110814E-14
  0.740762949         3.47419372E-14
  0.825291395         1.21191238E-13
  0.909819841         2.20449310E-13
  0.994348288         3.24884542E-13
   1.07887673         4.23388538E-13
   1.16340518         5.01083983E-13
   1.24793363         5.39613168E-13
   1.33246195         5.18380857E-13
   1.41699040         4.17035357E-13
   1.50151885         2.19257257E-13
   1.58604729        -8.24172206E-14
   1.67057574        -4.81410647E-13
   1.75510418        -9.52599436E-13
   1.83963263        -1.44976153E-12
   1.92416108        -1.90623992E-12
   2.00868940        -2.23975699E-12
   2.09321785        -2.36169613E-12
   2.17774630        -2.19028593E-12
   2.26227474        -1.66618856E-12
   2.34680319        -7.68138862E-13
   2.43133163         4.74230952E-13
   2.51586008         1.97326660E-12
   2.60038853         3.58421300E-12
   2.68491697         5.11542458E-12
   2.76944542         6.34761341E-12
   2.85397387         7.06027597E-12
   2.93850231         7.06200896E-12
   3.02303076         6.22044343E-12
   3.10755920         4.48729378E-12
   3.19208765         1.91457137E-12
   3.27661610        -1.34079965E-12
   3.36114454        -5.02496525E-12
   3.44567299        -8.80689098E-12
   3.53020120        -1.23074025E-11
   3.61472964        -1.51339791E-11
   3.69925809        -1.69172974E-11
   3.78378654        -1.73459528E-11
   3.86831498        -1.61966118E-11
   3.95284343        -1.33579311E-11
   4.03737211        -8.84771423E-12
   4.12190056        -2.82327417E-12
   4.20642900         4.41494627E-12
   4.29095745         1.24269761E-11
   4.37548542         2.06454472E-11
   4.46001387         2.83983653E-11
   4.54454231         3.49448352E-11
   4.62907076         3.95254905E-11
   4.71359921         4.14273893E-11
   4.79812765         4.00607880E-11
   4.88265610         3.50414628E-11
   4.96718454         2.62691813E-11
   5.05171299         1.39906246E-11
   5.13624144        -1.16587729E-12
   5.22076988        -1.81947391E-11
   5.30529833        -3.57638467E-11
   5.38982677        -5.23128138E-11
   5.47435522        -6.61930233E-11
   5.55888367        -7.58363927E-11
   5.64341211        -7.99341565E-11
   5.72794056        -7.76030074E-11
   5.81246901        -6.85166923E-11
   5.89699745        -5.29835134E-11
   5.98152590        -3.19574471E-11
   6.06605434        -6.97881856E-12
   6.15058279         1.99501249E-11
   6.23511124         4.65409516E-11
   6.31963968         7.04263800E-11
   6.40416813         8.93762148E-11
   6.48869658         1.01499462E-10
   6.57322502         1.05414039E-10
   6.65775347         1.00370420E-10
   6.74228191         8.63226851E-11
   6.82681036         6.39454878E-11
   6.91133881         3.46002775E-11
   6.99586725         2.56555844E-13
   7.08039570        -3.66268092E-11
   7.16492414        -7.32545552E-11
   7.24945259        -1.06679394E-10
   7.33398104        -1.34012940E-10
   7.41850948        -1.52658927E-10
   7.50303793        -1.60559122E-10
   7.58756638        -1.56437752E-10
   7.67209482        -1.40023868E-10
   7.75662327        -1.12226020E-10
   7.84115171        -7.52308701E-11
   7.92567968        -3.24981986E-11
   8.01020813         1.13683099E-11
   8.09473705         5.08863819E-11
   8.17926502         8.00925645E-11
   8.26379395         9.30505534E-11
   8.34832191         8.44352158E-11
   8.43285084         5.01417519E-11
   8.51737881        -1.21410529E-11
   8.60190773        -1.02453344E-10
   8.68643570        -2.18242771E-10
   8.77096462        -3.54242385E-10
   8.85549259        -5.02580144E-10
   8.94002151        -6.53125776E-10
   9.02454948        -7.94059651E-10
   9.10907841        -9.12630305E-10
   9.19360638        -9.96038696E-10
   9.27813530        -1.03238551E-09
   9.36266327        -1.01159747E-09
   9.44719219        -9.26259569E-10
   9.53172016        -7.72280295E-10
   9.61624908        -5.49330359E-10
   9.70077705        -2.61018873E-10
   9.78530502         8.52090343E-11
   9.86983395         4.78443285E-10
   9.95436192         9.04918529E-10
   10.0388908         1.34880718E-09
   10.1234188         1.79312731E-09
   10.2079477         2.22069696E-09
   10.2924757         2.61505728E-09
   10.3770046         2.96131430E-09
   10.4615326         3.24684857E-09
   10.5460615         3.46187945E-09
   10.6305895         3.59989083E-09
   10.7151184         3.65795261E-09
   10.7996464         3.63698693E-09
   10.8841753         3.54202156E-09
   10.9687033         3.38251627E-09
   11.0532322         3.17278692E-09
   11.1377602         2.93256641E-09
   11.2222891         2.68769895E-09
   11.3068171         2.47092569E-09
   11.3913460         2.32273201E-09
   11.4758739         2.29211050E-09
   11.5604029         2.43720732E-09
   11.6449308         2.82565127E-09
   11.7294598         3.53445007E-09
   11.8139877         4.64939998E-09
   11.8985167         6.26377750E-09
   11.9830446         8.47621973E-09
   12.0675735         1.13879564E-08
   12.1521015         1.50988928E-08
   12.2366304         1.97030232E-08
   12.3211584         2.52829473E-08
   12.4056873         3.19035713E-08
   12.4902153         3.96055420E-08
   12.5747442         4.83980216E-08
   12.6592722         5.82518602E-08
   12.7438011         6.90929838E-08
   12.8283291         8.07970082E-08
   12.9128580         9.31850579E-08
   12.9973860         1.06022171E-07
   13.0819149         1.19017770E-07
   13.1664429         1.31830205E-07
   13.2509708         1.44074860E-07
   13.3354998         1.55336338E-07
   13.4200277         1.65185668E-07
   13.5045567         1.73202665E-07
   13.5890846         1.79002342E-07
   13.6736135         1.82267044E-07
   13.7581415         1.82782131E-07
   13.8426704         1.80476462E-07
   13.9271984         1.75465189E-07
   14.0117273         1.68095511E-07
   14.0962553         1.58993672E-07
   14.1807842         1.49112950E-07
   14.2653122         1.39780440E-07
   14.3498411         1.32742912E-07
   14.4343691         1.30210495E-07
   14.5188980         1.34896283E-07
   14.6034260         1.50052827E-07
   14.6879549         1.79502820E-07
   14.7724829         2.27665481E-07
   14.8570118         2.99575049E-07
   14.9415398         4.00893782E-07
   15.0260687         5.37917856E-07
   15.1105967         7.17572789E-07
   15.1951256         9.47401247E-07
   15.2796535         1.23554241E-06
   15.3641825         1.59069930E-06
   15.4487104         2.02209526E-06
   15.5332394         2.53941312E-06
   15.6177673         3.15274247E-06
   15.7022963         3.87248974E-06
   15.7868242         4.70928671E-06
   15.8713531         5.67389816E-06
   15.9558811         6.77710023E-06
   16.0404091         8.02957675E-06
   16.1249390         9.44178282E-06
   16.2094669         1.10238216E-05
   16.2939949         1.27853054E-05
   16.3785229         1.47352530E-05
   16.4630527         1.68819261E-05
   16.5475807         1.92327443E-05
   16.6321087         2.17941888E-05
   16.7166367         2.45716492E-05
   16.8011646         2.75693892E-05
   16.8856945         3.07904520E-05
   16.9702225         3.42366075E-05
   17.0547504         3.79083722E-05
   17.1392784         4.18048076E-05
   17.2238083         4.59237272E-05
   17.3083363         5.02615403E-05
   17.3928642         5.48133721E-05
   17.4773922         5.95730162E-05
   17.5619221         6.45330001E-05
   17.6464500         6.96847055E-05
   17.7309780         7.50182880E-05
   17.8155060         8.05229356E-05
   17.9000359         8.61868466E-05
   17.9845638         9.19973754E-05
   18.0690918         9.79411052E-05
   18.1536198         1.04004001E-04
   18.2381496         1.10171561E-04
   18.3226776         1.16429015E-04
   18.4072056         1.22761325E-04
   18.4917336         1.29153399E-04
   18.5762634         1.35590337E-04
   18.6607914         1.42057659E-04
   18.7453194         1.48541149E-04
   18.8298473         1.55027432E-04
   18.9143772         1.61503835E-04
   18.9989052         1.67958686E-04
   19.0834332         1.74381435E-04
   19.1679611         1.80762785E-04
   19.2524910         1.87094731E-04
   19.3370190         1.93370899E-04
   19.4215469         1.99586269E-04
   19.5060749         2.05737437E-04
   19.5906048         2.11822713E-04
   19.6751328         2.17841982E-04
   19.7596607         2.23796655E-04
   19.8441887         2.29689686E-04
   19.9287186         2.35525396E-04
   20.0132465         2.41309419E-04
   20.0977745         2.47048622E-04
   20.1823025         2.52750469E-04
   20.2668324         2.58423534E-04
   20.3513603         2.64076632E-04
   20.4358883         2.69718876E-04
   20.5204163         2.75359314E-04
   20.6049442         2.81006796E-04
   20.6894741         2.86669616E-04
   20.7740021         2.92355166E-04
   20.8585300         2.98070139E-04
   20.9430580         3.03819688E-04
   21.0275879         3.09607887E-04
   21.1121159         3.15437326E-04
   21.1966438         3.21308908E-04
   21.2811718         3.27222195E-04
   21.3657017         3.33174947E-04
   21.4502296         3.39163642E-04
   21.5347576         3.45183449E-04
   21.6192856         3.51228169E-04
   21.7038155         3.57290643E-04
   21.7883434         3.63363157E-04
   21.8728714         3.69437126E-04
   21.9573994         3.75504111E-04
   22.0419292         3.81555612E-04
   22.1264572         3.87583394E-04
   22.2109852         3.93580063E-04
   22.2955132         3.99539131E-04
   22.3800430         4.05455328E-04
   22.4645710         4.11324814E-04
   22.5490990         4.17145464E-04
   22.6336269         4.22916870E-04
   22.7181568         4.28640837E-04
   22.8026848         4.34320740E-04
   22.8872128         4.39962023E-04
   22.9717407         4.45572223E-04
   23.0562706         4.51160508E-04
   23.1407986         4.56737471E-04
   23.2253265         4.62315424E-04
   23.3098545         4.67907317E-04
   23.3943844         4.73527034E-04
   23.4789124         4.79188719E-04
   23.5634403         4.84906224E-04
   23.6479683         4.90693143E-04
   23.7324982         4.96561988E-04
   23.8170261         5.02523500E-04
   23.9015541         5.08587051E-04
   23.9860821         5.14759391E-04
   24.0706100         5.21044538E-04
   24.1551399         5.27443888E-04
   24.2396679         5.33954881E-04
   24.3241959         5.40572102E-04
   24.4087238         5.47286007E-04
   24.4932537         5.54083381E-04
   24.5777817         5.60947577E-04
   24.6623096         5.67858107E-04
   24.7468376         5.74790931E-04
   24.8313675         5.81719331E-04
   24.9158955         5.88613679E-04
   25.0004234         5.95442427E-04
   25.0849514         6.02172047E-04
   25.1694813         6.08768605E-04
   25.2540092         6.15197816E-04
   25.3385372         6.21426152E-04
   25.4230652         6.27421599E-04
   25.5075951         6.33154646E-04
   25.5921230         6.38599158E-04
   25.6766510         6.43733598E-04
   25.7611790         6.48541201E-04
   25.8457088         6.53011666E-04
   25.9302368         6.57141150E-04
   26.0147648         6.60933438E-04
   26.0992928         6.64400752E-04
   26.1838226         6.67563349E-04
   26.2683506         6.70450623E-04
   26.3528786         6.73100527E-04
   26.4374065         6.75560441E-04
   26.5219364         6.77885779E-04
   26.6064644         6.80140743E-04
   26.6909924         6.82396465E-04
   26.7755203         6.84731349E-04
   26.8600502         6.87229040E-04
   26.9445782         6.89977780E-04
   27.0291061         6.93068781E-04
   27.1136341         6.96594652E-04
   27.1981640         7.00647768E-04
   27.2826920         7.05318234E-04
   27.3672199         7.10692198E-04
   27.4517479         7.16849347E-04
   27.5362759         7.23861682E-04
   27.6208057         7.31790438E-04
   27.7053337         7.40685151E-04
   27.7898617         7.50580570E-04
   27.8743896         7.61495903E-04
   27.9589195         7.73432432E-04
   28.0434475         7.86372111E-04
   28.1279755         8.00275942E-04
   28.2125034         8.15083913E-04
   28.2970333         8.30712961E-04
   28.3815613         8.47057498E-04
   28.4660892         8.63988185E-04
   28.5506172         8.81352753E-04
   28.6351471         8.98976054E-04
   28.7196751         9.16661287E-04
   28.8042030         9.34190874E-04
   28.8887310         9.51327209E-04
   28.9732609         9.67815751E-04
   29.0577888         9.83386533E-04
   29.1423168         9.97756259E-04
   29.2268448         1.01063156E-03
   29.3113747         1.02171092E-03
   29.3959026         1.03068911E-03
   29.4804306         1.03725970E-03
   29.5649586         1.04111817E-03
   29.6494884         1.04196649E-03
   29.7340164         1.03951525E-03
   29.8185444         1.03348831E-03
   29.9030724         1.02362561E-03
   29.9876022         1.00968720E-03
   30.0721302         9.91455745E-04
   30.1566582         9.68739449E-04
   30.2411861         9.41376318E-04
   30.3257160         9.09234979E-04
   30.4102440         8.72217875E-04
   30.4947720         8.30262725E-04
   30.5792999         7.83344381E-04
   30.6638298         7.31476466E-04
   30.7483578         6.74711075E-04
   30.8328857         6.13140524E-04
   30.9174137         5.46895957E-04
   31.0019417         4.76148416E-04
   31.0864716         4.01107041E-04
   31.1709995         3.22018488E-04
   31.2555275         2.39164947E-04
   31.3400555         1.52862747E-04
   31.4245853         6.34598618E-05
   31.5091133        -2.86663981E-05
   31.5936413        -1.23112448E-04
   31.6781693        -2.19451118E-04
   31.7626991        -3.17235274E-04
   31.8472271        -4.16000927E-04
   31.9317551        -5.15270978E-04
   32.0162849        -6.14558929E-04
   32.1008110        -7.13372661E-04
   32.1853409        -8.11217818E-04
   32.2698708        -9.07602429E-04
   32.3543968        -1.00204034E-03
   32.4389267        -1.09405397E-03
   32.5234528        -1.18318002E-03
   32.6079826        -1.26897066E-03
   32.6925125        -1.35099865E-03
   32.7770386        -1.42885908E-03
   32.8615685        -1.50217349E-03
   32.9460983        -1.57059159E-03
   33.0306244        -1.63379463E-03
   33.1151543        -1.69149635E-03
   33.1996803        -1.74344599E-03
   33.2842102        -1.78942888E-03
   33.3687401        -1.82926806E-03
   33.4532661        -1.86282606E-03
   33.5377960        -1.89000368E-03
   33.6223259        -1.91074063E-03
   33.7068520        -1.92501803E-03
   33.7913818        -1.93285313E-03
   33.8759079        -1.93430390E-03
   33.9604378        -1.92946382E-03
   34.0449677        -1.91846234E-03
   34.1294937        -1.90146302E-03
   34.2140236        -1.87866192E-03
   34.2985535        -1.85028650E-03
   34.3830795        -1.81658962E-03
   34.4676094        -1.77785184E-03
   34.5521355        -1.73437572E-03
   34.6366653        -1.68648444E-03
   34.7211952        -1.63451803E-03
   34.8057213        -1.57883263E-03
   34.8902512        -1.51979434E-03
   34.9747772        -1.45777944E-03
   35.0593071        -1.39316986E-03
   35.1438370        -1.32635143E-03
   35.2283630        -1.25771004E-03
   35.3128929        -1.18763046E-03
   35.3974228        -1.11649325E-03
   35.4819489        -1.04467187E-03
   35.5664787        -9.72532027E-04
   35.6510048        -9.00428102E-04
   35.7355347        -8.28703109E-04
   35.8200645        -7.57684931E-04
   35.9045906        -6.87687250E-04
   35.9891205        -6.19006751E-04
   36.0736504        -5.51922363E-04
   36.1581764        -4.86694684E-04
   36.2427063        -4.23565129E-04
   36.3272324        -3.62755003E-04
   36.4117622        -3.04465502E-04
   36.4962921        -2.48877070E-04
   36.5808182        -1.96149020E-04
   36.6653481        -1.46420018E-04
   36.7498779        -9.98074465E-05
   36.8344040        -5.64075890E-05
   36.9189339        -1.62961533E-05
   37.0034599         2.04721964E-05
   37.0879898         5.38628919E-05
   37.1725197         8.38614942E-05
   37.2570457         1.10473171E-04
   37.3415756         1.33722133E-04
   37.4261055         1.53651257E-04
   37.5106316         1.70321073E-04
   37.5951614         1.83809374E-04
   37.6796875         1.94210545E-04
   37.7642174         2.01634044E-04
   37.8487473         2.06204204E-04
   37.9332733         2.08058773E-04
   38.0178032         2.07348188E-04
   38.1023293         2.04233933E-04
   38.1868591         1.98887850E-04
   38.2713890         1.91490573E-04
   38.3559151         1.82230360E-04
   38.4404449         1.71301566E-04
   38.5249748         1.58903378E-04
   38.6095009         1.45238388E-04
   38.6940308         1.30511005E-04
   38.7785568         1.14926144E-04
   38.8630867         9.86876184E-05
   38.9476166         8.19967972E-05
   39.0321426         6.50511574E-05
   39.1166725         4.80428389E-05
   39.2012024         3.11573931E-05
   39.2857285         1.45724471E-05
   39.3702583        -1.54343559E-06
   39.4547844        -1.70318817E-05
   39.5393143        -3.17457598E-05
   39.6238441        -4.55499867E-05
   39.7083702        -5.83223627E-05
   39.7929001        -6.99542361E-05
   39.8774300        -8.03510047E-05
   39.9619560        -8.94325203E-05
   40.0464859        -9.71333648E-05
   40.1310120        -1.03403021E-04
   40.2155418        -1.08205713E-04
   40.3000717        -1.11520480E-04
   40.3845978        -1.13340735E-04
   40.4691277        -1.13673974E-04
   40.5536575        -1.12541216E-04
   40.6381836        -1.09976419E-04
   40.7227135        -1.06025676E-04
   40.8072395        -1.00746489E-04
   40.8917694        -9.42068073E-05
   40.9762993        -8.64840258E-05
   41.0608253        -7.76639426E-05
   41.1453552        -6.78396318E-05
   41.2298851        -5.71103155E-05
   41.3144112        -4.55801455E-05
   41.3989410        -3.33569624E-05
   41.4834671        -2.05511078E-05
   41.5679970        -7.27422139E-06
   41.6525269         6.36193681E-06
   41.7370529         2.02466817E-05
   41.8215828         3.42714557E-05
   41.9061089         4.83308577E-05
   41.9906387         6.23235828E-05
   42.0751686         7.61532574E-05
   42.1596947         8.97292994E-05
   42.2442245         1.02967468E-04
   42.3287544         1.15790295E-04
   42.4132805         1.28127780E-04
   42.4978104         1.39917363E-04
   42.5823364         1.51104367E-04
   42.6668663         1.61641947E-04
   42.7513962         1.71490974E-04
   42.8359222         1.80620162E-04
   42.9204521         1.89005528E-04
   43.0049820         1.96630295E-04
   43.0895081         2.03484393E-04
   43.1740379         2.09564067E-04
   43.2585640         2.14871470E-04
   43.3430939         2.19413982E-04
   43.4276237         2.23203650E-04
   43.5121498         2.26256758E-04
   43.5966797         2.28593228E-04
   43.6812096         2.30235921E-04
   43.7657356         2.31210419E-04
   43.8502655         2.31544109E-04
   43.9347916         2.31266182E-04
   44.0193214         2.30406804E-04
   44.1038513         2.28997073E-04
   44.1883774         2.27068507E-04
   44.2729073         2.24652860E-04
   44.3574371         2.21781971E-04
   44.4419632         2.18487388E-04
   44.5264931         2.14800602E-04
   44.6110191         2.10752623E-04
   44.6955490         2.06374214E-04
   44.7800789         2.01695628E-04
   44.8646049         1.96746885E-04
   44.9491348         1.91557614E-04
   45.0336647         1.86157296E-04
   45.1181908         1.80575167E-04
   45.2027206         1.74840417E-04
   45.2872467         1.68982428E-04
   45.3717766         1.63030447E-04
   45.4563065         1.57014190E-04
   45.5408325         1.50963679E-04
   45.6253624         1.44909209E-04
   45.7098885         1.38881689E-04
   45.7944183         1.32912435E-04
   45.8789482         1.27033345E-04
   45.9634743         1.21276644E-04
   46.0480042         1.15675044E-04
   46.1325340         1.10261368E-04
   46.2170601         1.05068568E-04
   46.3015900         1.00129408E-04
   46.3861160         9.54761636E-05
   46.4706459         9.11405077E-05
   46.5551758         8.71529774E-05
   46.6397018         8.35427272E-05
   46.7242317         8.03372241E-05
   46.8087616         7.75618464E-05
   46.8932877         7.52394844E-05
   46.9778175         7.33903144E-05
   47.0623436         7.20314565E-05
   47.1468735         7.11766843E-05
   47.2314034         7.08361185E-05
   47.3159294         7.10161912E-05
   47.4004593         7.17193034E-05
   47.4849892         7.29438616E-05
   47.5695152         7.46840669E-05
   47.6540451         7.69300314E-05
   47.7385712         7.96676322E-05
   47.8231010         8.28787088E-05
   47.9076309         8.65410548E-05
   47.9921570         9.06286514E-05
   48.0766869         9.51116162E-05
   48.1612167         9.99566983E-05
   48.2457428         1.05127256E-04
   48.3302727         1.10583533E-04
   48.4147987         1.16282943E-04
   48.4993286         1.22180281E-04
   48.5838585         1.28228028E-04
   48.6683846         1.34376620E-04
   48.7529144         1.40574397E-04
   48.8374405         1.46768463E-04
   48.9219704         1.52904322E-04
   49.0065002         1.58926530E-04
   49.0910263         1.64778787E-04
   49.1755562         1.70404324E-04
   49.2600861         1.75746056E-04
   49.3446121         1.80747171E-04
   49.4291420         1.85351135E-04
   49.5136681         1.89502505E-04
   49.5981979         1.93147032E-04
   49.6827278         1.96232286E-04
   49.7672539         1.98708280E-04
   49.8517838         2.00527997E-04
   49.9363136         2.01647883E-04
   50.0208397         2.02028517E-04
   50.1053696         2.01635470E-04
   50.1898956         2.00439565E-04
   50.2744255         1.98417969E-04
   50.3589554         1.95554239E-04
   50.4434814         1.91839441E-04
   50.5280113         1.87272060E-04
   50.6125412         1.81858806E-04
   50.6970673         1.75614783E-04
   50.7815971         1.68563434E-04
   50.8661232         1.60737050E-04
   50.9506531         1.52176377E-04
   51.0351830         1.42930352E-04
   51.1197090         1.33056164E-04
   51.2042389         1.22618352E-04
   51.2887688         1.11688503E-04
   51.3732948         1.00344536E-04
   51.4578247         8.86696216E-05
   51.5423508         7.67516613E-05
   51.6268806         6.46819753E-05
   51.7114105         5.25544965E-05
   51.7959366         4.04645070E-05
   51.8804665         2.85076349E-05
   51.9649963         1.67786893E-05
   52.0495224         5.37060851E-06
   52.1340523        -5.62664445E-06
   52.2185783        -1.61270527E-05
   52.3031082        -2.60494526E-05
   52.3876381        -3.53183750E-05
   52.4721642        -4.38649076E-05
   52.5566940        -5.16271903E-05
   52.6412201        -5.85510825E-05
   52.7257500        -6.45905093E-05
   52.8102798        -6.97077485E-05
   52.8948059        -7.38738599E-05
   52.9793358        -7.70685365E-05
   53.0638657        -7.92801729E-05
   53.1483917        -8.05059317E-05
   53.2329216        -8.07513497E-05
   53.3174477        -8.00303023E-05
   53.4019775        -7.83644500E-05
   53.4865074        -7.57830494E-05
   53.5710335        -7.23223930E-05
   53.6555634        -6.80253215E-05
   53.7400932        -6.29406786E-05
   53.8246193        -5.71227538E-05
   53.9091492        -5.06305405E-05
   53.9936752        -4.35271832E-05
   54.0782051        -3.58793259E-05
   54.1627350        -2.77562594E-05
   54.2472610        -1.92293755E-05
   54.3317909        -1.03713910E-05
   54.4163208        -1.25561110E-06
   54.5008469         8.04471074E-06
   54.5853767         1.74571014E-05
   54.6699028         2.69105240E-05
   54.7544327         3.63359140E-05
   54.8389626         4.56668567E-05
   54.9234886         5.48400785E-05
   55.0080185         6.37959893E-05
   55.0925484         7.24789643E-05
   55.1770744         8.08379482E-05
   55.2616043         8.88265786E-05
   55.3461304         9.64034843E-05
   55.4306602         1.03532606E-04
   55.5151901         1.10183079E-04
   55.5997162         1.16329429E-04
   55.6842461         1.21951562E-04
   55.7687759         1.27034582E-04
   55.8533020         1.31568755E-04
   55.9378319         1.35549213E-04
   56.0223579         1.38975665E-04
   56.1068878         1.41852172E-04
   56.1914177         1.44186692E-04
   56.2759438         1.45990663E-04
   56.3604736         1.47278595E-04
   56.4449997         1.48067702E-04
   56.5295296         1.48377323E-04
   56.6140594         1.48228486E-04
   56.6985855         1.47643470E-04
   56.7831154         1.46645369E-04
   56.8676453         1.45257698E-04
   56.9521713         1.43504047E-04
   57.0367012         1.41407727E-04
   57.1212273         1.38991483E-04
   57.2057571         1.36277347E-04
   57.2902870         1.33286347E-04
   57.3748131         1.30038461E-04
   57.4593430         1.26552623E-04
   57.5438728         1.22846541E-04
   57.6283989         1.18936921E-04
   57.7129288         1.14839415E-04
   57.7974548         1.10568799E-04
   57.8819847         1.06139254E-04
   57.9665146         1.01564387E-04
   58.0510406         9.68574313E-05
   58.1355705         9.20316234E-05
   58.2201004         8.71002485E-05
   58.3046265         8.20770219E-05
   58.3891563         7.69761173E-05
   58.4736824         7.18123774E-05
   58.5582123         6.66014603E-05
   58.6427422         6.13599041E-05
   58.7272682         5.61052366E-05
   58.8117981         5.08558842E-05
   58.8963280         4.56310809E-05
   58.9808540         4.04509665E-05
   59.0653839         3.53363357E-05
   59.1499100         3.03084271E-05
   59.2344398         2.53888538E-05
   59.3189697         2.05993474E-05
   59.4034958         1.59614647E-05
   59.4880257         1.14964632E-05
   59.5725517         7.22496952E-06
   59.6570816         3.16681644E-06
   59.7416115        -6.59185616E-07
   59.8261375        -4.23548227E-06
   59.9106674        -7.54591838E-06
   59.9951973        -1.05757963E-05
   60.0797234        -1.33121730E-05
   60.1642532        -1.57437553E-05
   60.2487793        -1.78611008E-05
   60.3333092        -1.96564888E-05
   60.4178391        -2.11241204E-05
   60.5023651        -2.22599210E-05
   60.5868950        -2.30615587E-05
   60.6714249        -2.35284497E-05
   60.7559509        -2.36615797E-05
   60.8404808        -2.34635754E-05
   60.9250069        -2.29386060E-05
   61.0095367        -2.20922993E-05
   61.0940666        -2.09318023E-05
   61.1785927        -1.94656986E-05
   61.2631226        -1.77040420E-05
   61.3476524        -1.56583901E-05
   61.4321785        -1.33418680E-05
   61.5167084        -1.07691631E-05
   61.6012344        -7.95659071E-06
   61.6857643        -4.92219078E-06
   61.7702942        -1.68573661E-06
   61.8548203         1.73126841E-06
   61.9393501         5.30554507E-06
   62.0238800         9.01209023E-06
   62.1084061         1.28242873E-05
   62.1929359         1.67140024E-05
   62.2774620         2.06517761E-05
   62.3619919         2.46069831E-05
   62.4465218         2.85481256E-05
   62.5310478         3.24432513E-05
   62.6155777         3.62600658E-05
   62.7001076         3.99665041E-05
   62.7846336         4.35310903E-05
   62.8691635         4.69233710E-05
   62.9536896         5.01143368E-05
   63.0382195         5.30768266E-05
   63.1227493         5.57861313E-05
   63.2072754         5.82202374E-05
   63.2918053         6.03603658E-05
   63.3763313         6.21912695E-05
   63.4608612         6.37016128E-05
   63.5453911         6.48842470E-05
   63.6299171         6.57363780E-05
   63.7144470         6.62598686E-05
   63.7989769         6.64612016E-05
   63.8835030         6.63515821E-05