  -4.50000000         0.00000000    
  -4.41547155         0.00000000    
  -4.33094311         0.00000000    
  -4.24641466         0.00000000    
  -4.16188622         0.00000000    
  -4.07735777         0.00000000    
  -3.99282932         0.00000000    
  -3.90830088         0.00000000    
  -3.82377243         0.00000000    
  -3.73924398         0.00000000    
  -3.65471554         0.00000000    
  -3.57018733         0.00000000    
  -3.48565888         0.00000000    
  -3.40113044         0.00000000    
  -3.31660199         0.00000000    
  -3.23207355         0.00000000    
  -3.14754510         0.00000000    
  -3.06301665         0.00000000    
  -2.97848821         0.00000000    
  -2.89395976         0.00000000    
  -2.80943131         0.00000000    
  -2.72490287         0.00000000    
  -2.64037442         0.00000000    
  -2.55584598         0.00000000    
  -2.47131753         0.00000000    
  -2.38678908         0.00000000    
  -2.30226064        -4.73193414E-34
  -2.21773219        -3.03135546E-33
  -2.13320374        -8.64470080E-33
  -2.04867530        -7.10825769E-33
  -1.96414697         1.55275883E-32
  -1.87961853         6.79918510E-32
  -1.79509008         9.83606653E-32
  -1.71056163         6.34445217E-32
  -1.62603319        -1.30688547E-31
  -1.54150474        -5.99616988E-31
  -1.45697629        -1.39007059E-30
  -1.37244797        -2.48037113E-30
  -1.28791952        -3.69962604E-30
  -1.20339108        -4.68655529E-30
  -1.11886263        -4.83994809E-30
  -1.03433418        -2.63603687E-30
 -0.949805737         3.68189883E-30
 -0.865277290         1.08318874E-29
 -0.780748844         1.92566046E-29
 -0.696220458         2.98288451E-29
 -0.611692011         5.78542554E-29
 -0.527163565         1.17423696E-28
 -0.442635119         2.29129956E-28
 -0.358106703         4.23409969E-28
 -0.273578256         7.27183817E-28
 -0.189049825         1.16276075E-27
 -0.104521386         1.73563343E-27
  -1.99929532E-02     2.42304771E-27
   6.45354837E-02     3.15694893E-27
  0.149063915         3.80219208E-27
  0.233592346         4.15293898E-27
  0.318120778         3.92375948E-27
  0.402649224         2.74710333E-27
  0.487177670         1.89608285E-28
  0.571706116        -4.21328953E-27
  0.656234503        -1.09061391E-26
  0.740762949        -2.02412864E-26
  0.825291395        -3.23890665E-26
  0.909819841        -4.72375888E-26
  0.994348288        -6.42887556E-26
   1.07887673        -8.25641052E-26
   1.16340518        -1.00534369E-25
   1.24793363        -1.16088426E-25
   1.33246195        -1.26558496E-25
   1.41699040        -1.28817966E-25
   1.50151885        -1.19471567E-25
   1.58604729        -9.51580045E-26
   1.67057574        -5.29910287E-26
   1.75510418         8.82962305E-27
   1.83963263         9.02076065E-26
   1.92416108         1.88105682E-25
   2.00868940         2.95258508E-25
   2.09321785         3.98668756E-25
   2.17774630         4.77982557E-25
   2.26227474         5.03948407E-25
   2.34680319         4.37302282E-25
   2.43133163         2.28589925E-25
   2.51586008        -1.80385631E-25
   2.60038853        -8.52670779E-25
   2.68491697        -1.84894738E-24
   2.76944542        -3.21622555E-24
   2.85397387        -4.97198913E-24
   2.93850231        -7.08395357E-24
   3.02303076        -9.44653045E-24
   3.10755920        -1.18562812E-23
   3.19208765        -1.39901926E-23
   3.27661610        -1.53920094E-23
   3.36114454        -1.54733599E-23
   3.44567299        -1.35370078E-23
   3.53020120        -8.82959153E-24
   3.61472964        -6.29660541E-25
   3.69925809         1.16265704E-23
   3.78378654         2.81843530E-23
   3.86831498         4.87842186E-23
   3.95284343         7.24690163E-23
   4.03737211         9.74117190E-23
   4.12190056         1.20800732E-22
   4.20642900         1.38825408E-22
   4.29095745         1.46806207E-22
   4.37548542         1.39510367E-22
   4.46001387         1.11679367E-22
   4.54454231         5.87739177E-23
   4.62907076        -2.20913144E-23
   4.71359921        -1.31090229E-22
   4.79812765        -2.64616487E-22
   4.88265610        -4.14359124E-22
   4.96718454        -5.66713585E-22
   5.05171299        -7.02739155E-22
   5.13624144        -7.98869165E-22
   5.22076988        -8.28542603E-22
   5.30529833        -7.64851210E-22
   5.38982677        -5.84184292E-22
   5.47435522        -2.70707225E-22
   5.55888367         1.78661369E-22
   5.64341211         7.49280333E-22
   5.72794056         1.40449482E-21
   5.81246901         2.08280160E-21
   5.89699745         2.69730128E-21
   5.98152590         3.13820935E-21
   6.06605434         3.27904674E-21
   6.15058279         2.98682499E-21
   6.23511124         2.13619030E-21
   6.31963968         6.26933838E-22
   6.40416813        -1.59618262E-21
   6.48869658        -4.52293473E-21
   6.57322502        -8.05859628E-21
   6.65775347        -1.20087892E-20
   6.74228191        -1.60709254E-20
   6.82681036        -1.98347458E-20
   6.91133881        -2.27942849E-20
   6.99586725        -2.43728913E-20
   7.08039570        -2.39620022E-20
   7.16492414        -2.09734698E-20
   7.24945259        -1.49035991E-20
   7.33398104        -5.40599245E-21
   7.41850948         7.63152552E-21
   7.50303793         2.40117090E-20
   7.58756638         4.31616866E-20
   7.67209482         6.40839180E-20
   7.75662327         8.53329989E-20
   7.84115171         1.05027122E-19
   7.92567968         1.20902192E-19
   8.01020813         1.30415234E-19
   8.09473705         1.30901086E-19
   8.17926502         1.19782538E-19
   8.26379395         9.48302989E-20
   8.34832191         5.44617719E-20
   8.43285084        -1.93700537E-21
   8.51737881        -7.36903736E-20
   8.60190773        -1.58542244E-19
   8.68643570        -2.52431457E-19
   8.77096462        -3.49371390E-19
   8.85549259        -4.41473014E-19
   8.94002151        -5.19146928E-19
   9.02454948        -5.71511700E-19
   9.10907841        -5.87022474E-19
   9.19360638        -5.54317303E-19
   9.27813530        -4.63257384E-19
   9.36266327        -3.06111188E-19
   9.44719219        -7.88148286E-20
   9.53172016         2.17790607E-19
   9.61624908         5.76850013E-19
   9.70077705         9.84640956E-19
   9.78530502         1.42009571E-18
   9.86983395         1.85481707E-18
   9.95436192         2.25368088E-18
   10.0388908         2.57609561E-18
   10.1234188         2.77794423E-18
   10.2079477         2.81419025E-18
   10.2924757         2.64208229E-18
   10.3770046         2.22483978E-18
   10.4615326         1.53564147E-18
   10.5460615         5.61718708E-19
   10.6305895        -6.91719447E-19
   10.7151184        -2.19799921E-18
   10.7996464        -3.90625250E-18
   10.8841753        -5.73975540E-18
   10.9687033        -7.59566290E-18
   11.0532322        -9.34642789E-18
   11.1377602        -1.08431715E-17
   11.2222891        -1.19212368E-17
   11.3068171        -1.24080161E-17
   11.3913460        -1.21330844E-17
   11.4758739        -1.09405191E-17
   11.5604029        -8.70307411E-18
   11.6449308        -5.33768276E-18
   11.7294598        -8.21559145E-19
   11.8139877         4.79210213E-18
   11.8985167         1.13601048E-17
   11.9830446         1.86382883E-17
   12.0675735         2.62752482E-17
   12.1521015         3.38123277E-17
   12.2366304         4.06915190E-17
   12.3211584         4.62725000E-17
   12.4056873         4.98598798E-17
   12.4902153         5.07408734E-17
   12.5747442         4.82331397E-17
   12.6592722         4.17413998E-17
   12.7438011         3.08206140E-17
   12.8283291         1.52423066E-17
   12.9128580        -4.94037260E-18
   12.9973860        -2.93338991E-17
   13.0819149        -5.71581605E-17
   13.1664429        -8.72185061E-17
   13.2509708        -1.17902420E-16
   13.3354998        -1.47205724E-16
   13.4200277        -1.72792921E-16
   13.5045567        -1.92093216E-16
   13.5890846        -2.02432629E-16
   13.6736135        -2.01199442E-16
   13.7581415        -1.86036546E-16
   13.8426704        -1.55052597E-16
   13.9271984        -1.07039997E-16
   14.0117273        -4.16855321E-17
   14.0962553         4.02419927E-17
   14.1807842         1.36743755E-16
   14.2653122         2.44499078E-16
   14.3498411         3.58843285E-16
   14.4343691         4.73829066E-16
   14.5188980         5.82377079E-16
   14.6034260         6.76521562E-16
   14.6879549         7.47744592E-16
   14.7724829         7.87394416E-16
   14.8570118         7.87171329E-16
   14.9415398         7.39658975E-16
   15.0260687         6.38884024E-16
   15.1105967         4.80866957E-16
   15.1951256         2.64142116E-16
   15.2796535        -9.78623652E-18
   15.3641825        -3.36080942E-16
   15.4487104        -7.06325952E-16
   15.5332394        -1.10842022E-15
   15.6177673        -1.52663300E-15
   15.7022963        -1.94182854E-15
   15.7868242        -2.33187090E-15
   15.8713531        -2.67221467E-15
   15.9558811        -2.93667636E-15
   16.0404091        -3.09838193E-15
   16.1249390        -3.13088195E-15
   16.2094669        -3.00941086E-15
   16.2939949        -2.71227721E-15
   16.3785229        -2.22234340E-15
   16.4630527        -1.52855597E-15
   16.5475807        -6.27483066E-16
   16.6321087         4.75218729E-16
   16.7166367         1.76347199E-15
   16.8011646         3.20967931E-15
   16.8856945         4.77394418E-15
   16.9702225         6.40372282E-15
   17.0547504         8.03399824E-15
   17.1392784         9.58807415E-15
   17.2238083         1.09790742E-14
   17.3083363         1.21121790E-14
   17.3928642         1.28876597E-14
   17.4773922         1.32046499E-14
   17.5619221         1.29656273E-14
   17.6464500         1.20814986E-14
   17.7309780         1.04771267E-14
   17.8155060         8.09710389E-15
   17.9000359         4.91158068E-15
   17.9845638         9.21836968E-16
   18.0690918        -3.83465114E-15
   18.1536198        -9.27993288E-15
   18.2381496        -1.52924125E-14
   18.3226776        -2.17050465E-14
   18.4072056        -2.83051746E-14
   18.4917336        -3.48362391E-14
   18.5762634        -4.10016090E-14
   18.6607914        -4.64706161E-14
   18.7453194        -5.08869781E-14
   18.8298473        -5.38796031E-14
   18.9143772        -5.50758203E-14
   18.9989052        -5.41168029E-14
   19.0834332        -5.06750065E-14
   19.1679611        -4.44732989E-14
   19.2524910        -3.53052209E-14
   19.3370190        -2.30556524E-14
   19.4215469        -7.72128130E-15
   19.5060749         1.05703418E-14
   19.5906048         3.15440863E-14
   19.6751328         5.47641190E-14
   19.7596607         7.96256710E-14
   19.8441887         1.05352860E-13
   19.9287186         1.31003905E-13
   20.0132465         1.55484648E-13
   20.0977745         1.77571106E-13
   20.1823025         1.95941923E-13
   20.2668324         2.09220377E-13
   20.3513603         2.16025670E-13
   20.4358883         2.15032920E-13
   20.5204163         2.05040100E-13
   20.6049442         1.85039579E-13
   20.6894741         1.54292689E-13
   20.7740021         1.12403061E-13
   20.8585300         5.93859814E-14
   20.9430580        -4.27037886E-15
   21.0275879        -7.75558274E-14
   21.1121159        -1.58905210E-13
   21.1966438        -2.46185234E-13
   21.2811718        -3.36704839E-13
   21.3657017        -4.27251686E-13
   21.4502296        -5.14156588E-13
   21.5347576        -5.93387102E-13
   21.6192856        -6.60669436E-13
   21.7038155        -7.11636587E-13
   21.7883434        -7.41999832E-13
   21.8728714        -7.47739273E-13
   21.9573994        -7.25304690E-13
   22.0419292        -6.71822081E-13
   22.1264572        -5.85294671E-13
   22.2109852        -4.64790912E-13
   22.2955132        -3.10608500E-13
   22.3800430        -1.24405301E-13
   22.4645710         9.07112452E-14
   22.5490990         3.30144630E-13
   22.6336269         5.87825307E-13
   22.7181568         8.56287155E-13
   22.8026848         1.12680579E-12
   22.8872128         1.38959764E-12
   22.9717407         1.63408100E-12
   23.0562706         1.84918725E-12
   23.1407986         2.02372255E-12
   23.2253265         2.14676302E-12
   23.3098545         2.20807921E-12
   23.3943844         2.19857335E-12
   23.4789124         2.11071547E-12
   23.5634403         1.93896613E-12
   23.6479683         1.68016946E-12
   23.7324982         1.33389935E-12
   23.8170261         9.02746790E-13
   23.9015541         3.92529786E-13
   23.9860821        -1.87585367E-13
   24.0706100        -8.25068692E-13
   24.1551399        -1.50412376E-12
   24.2396679        -2.20590993E-12
   24.3241959        -2.90889513E-12
   24.4087238        -3.58933413E-12
   24.4932537        -4.22188499E-12
   24.5777817        -4.78033411E-12
   24.6623096        -5.23843122E-12
   24.7468376        -5.57080987E-12
   24.8313675        -5.75396328E-12
   24.9158955        -5.76724649E-12
   25.0004234        -5.59387259E-12
   25.0849514        -5.22184553E-12
   25.1694813        -4.64482185E-12
   25.2540092        -3.86282022E-12
   25.3385372        -2.88276911E-12
   25.4230652        -1.71884707E-12
   25.5075951        -3.92584430E-13
   25.5921230         1.06728992E-12
   25.6766510         2.62526914E-12
   25.7611790         4.23976392E-12
   25.8457088         5.86405230E-12
   25.9302368         7.44748447E-12
   26.0147648         8.93688335E-12
   26.0992928         1.02781499E-11
   26.1838226         1.14179638E-11
   26.2683506         1.23056001E-11
   26.3528786         1.28947296E-11
   26.4374065         1.31452245E-11
   26.5219364         1.30248191E-11
   26.6064644         1.25106488E-11
   26.6909924         1.15905428E-11
   26.7755203         1.02640708E-11
   26.8600502         8.54324510E-12
   26.9445782         6.45286906E-12
   27.0291061         4.03050466E-12
   27.1136341         1.32599769E-12
   27.1981640        -1.59939369E-12
   27.2826920        -4.67431215E-12
   27.3672199        -7.81900499E-12
   27.4517479        -1.09473958E-11
   27.5362759        -1.39694775E-11
   27.6208057        -1.67939569E-11
   27.7053337        -1.93310801E-11
   27.7898617        -2.14955363E-11
   27.8743896        -2.32093442E-11
   27.9589195        -2.44046276E-11
   28.0434475        -2.50261496E-11
   28.1279755        -2.50335169E-11
   28.2125034        -2.44029259E-11
   28.2970333        -2.31284158E-11
   28.3815613        -2.12224682E-11
   28.4660892        -1.87159958E-11
   28.5506172        -1.56576280E-11
   28.6351471        -1.21123294E-11
   28.7196751        -8.15935687E-12
   28.8042030        -3.88965943E-12
   28.8887310         5.97223876E-13
   28.9732609         5.19661831E-12
   29.0577888         9.80236985E-12
   29.1423168         1.43105501E-11
   29.2268448         1.86230267E-11
   29.3113747         2.26507164E-11
   29.3959026         2.63163588E-11
   29.4804306         2.95566349E-11
   29.5649586         3.23235431E-11
   29.6494884         3.45849807E-11
   29.7340164         3.63243081E-11
   29.8185444         3.75391628E-11
   29.9030724         3.82394047E-11
   29.9876022         3.84443345E-11
   30.0721302         3.81794041E-11
   30.1566582         3.74724626E-11
   30.2411861         3.63499821E-11
   30.3257160         3.48332890E-11
   30.4102440         3.29351546E-11
   30.4947720         3.06569770E-11
   30.5792999         2.79867449E-11
   30.6638298         2.48980368E-11
   30.7483578         2.13500259E-11
   30.8328857         1.72889012E-11
   30.9174137         1.26504033E-11
   31.0019417         7.36373462E-12
   31.0864716         1.35651158E-12
   31.1709995        -5.43907627E-12
   31.2555275        -1.30792824E-11
   31.3400555        -2.16013752E-11
   31.4245853        -3.10157108E-11
   31.5091133        -4.12978610E-11
   31.5936413        -5.23813562E-11
   31.6781693        -6.41509068E-11
   31.7626991        -7.64370719E-11
   31.8472271        -8.90124849E-11
   31.9317551        -1.01590000E-10
   32.0162849        -1.13823173E-10
   32.1008110        -1.25309499E-10
   32.1853409        -1.35596298E-10
   32.2698708        -1.44189591E-10
   32.3543968        -1.50566143E-10
   32.4389267        -1.54188093E-10
   32.5234528        -1.54520369E-10
   32.6079826        -1.51050422E-10
   32.6925125        -1.43309892E-10
   32.7770386        -1.30897113E-10
   32.8615685        -1.13500424E-10
   32.9460983        -9.09214995E-11
   33.0306244        -6.30965766E-11
   33.1151543        -3.01168153E-11
   33.1996803         7.75537447E-12
   33.2842102         5.00730568E-11
   33.3687401         9.61968838E-11
   33.4532661         1.45292320E-10
   33.5377960         1.96333366E-10
   33.6223259         2.48112725E-10
   33.7068520         2.99259451E-10
   33.7913818         3.48263529E-10
   33.8759079         3.93508059E-10
   33.9604378         4.33308167E-10
   34.0449677         4.65956163E-10
   34.1294937         4.89773111E-10
   34.2140236         5.03164399E-10
   34.2985535         5.04678299E-10
   34.3830795         4.93067087E-10
   34.4676094         4.67347661E-10
   34.5521355         4.26859909E-10
   34.6366653         3.71321640E-10
   34.7211952         3.00876379E-10
   34.8057213         2.16133222E-10
   34.8902512         1.18195759E-10
   34.9747772         8.67770265E-12
   35.0593071        -1.10295099E-10
   35.1438370        -2.36100611E-10
   35.2283630        -3.65652369E-10
   35.3128929        -4.95450792E-10
   35.3974228        -6.21652896E-10
   35.4819489        -7.40159989E-10
   35.5664787        -8.46723192E-10
   35.6510048        -9.37065647E-10
   35.7355347        -1.00701603E-09
   35.8200645        -1.05265652E-09
   35.9045906        -1.07047360E-09
   35.9891205        -1.05751641E-09
   36.0736504        -1.01154995E-09
   36.1581764        -9.31203559E-10
   36.2427063        -8.16105850E-10
   36.3272324        -6.67002897E-10
   36.4117622        -4.85852303E-10
   36.4962921        -2.75887813E-10
   36.5808182        -4.16501278E-11
   36.6653481         2.11021756E-10
   36.7498779         4.75042450E-10
   36.8344040         7.42177375E-10
   36.9189339         1.00318964E-09
   37.0034599         1.24803490E-09
   37.0879898         1.46610601E-09
   37.1725197         1.64652103E-09
   37.2570457         1.77845882E-09
   37.3415756         1.85152649E-09
   37.4261055         1.85616122E-09
   37.5106316         1.78405168E-09
   37.5951614         1.62856939E-09
   37.6796875         1.38520295E-09
   37.7642174         1.05197406E-09
   37.8487473         6.29828689E-10
   37.9332733         1.22981375E-10
   38.0178032        -4.60794680E-10
   38.1023293        -1.10995590E-09
   38.1868591        -1.80906290E-09
   38.2713890        -2.53876498E-09
   38.3559151        -3.27589089E-09
   38.4404449        -3.99368139E-09
   38.5249748        -4.66214312E-09
   38.6095009        -5.24855714E-09
   38.6940308        -5.71811887E-09
   38.7785568        -6.03473538E-09
   38.8630867        -6.16193097E-09
   38.9476166        -6.06390360E-09
   39.0321426        -5.70666892E-09
   39.1166725        -5.05929565E-09
   39.2012024        -4.09519751E-09
   39.2857285        -2.79345969E-09
   39.3702583        -1.14015652E-09
   39.4547844         8.70384431E-10
   39.5393143         3.23436922E-09
   39.6238441         5.93749006E-09
   39.7083702         8.95402064E-09
   39.7929001         1.22461028E-08
   39.8774300         1.57633178E-08
   39.9619560         1.94425116E-08
   40.0464859         2.32079564E-08
   40.1310120         2.69718274E-08
   40.2155418         3.06350856E-08
   40.3000717         3.40886572E-08
   40.3845978         3.72151305E-08
   40.4691277         3.98906685E-08
   40.5536575         4.19873878E-08
   40.6381836         4.33760476E-08
   40.7227135         4.39289956E-08
   40.8072395         4.35234568E-08
   40.8917694         4.20449169E-08
   40.9762993         3.93906880E-08
   41.0608253         3.54735654E-08
   41.1453552         3.02253369E-08
   41.2298851         2.36003377E-08
   41.3144112         1.55786566E-08
   41.3989410         6.16909590E-09
   41.4834671        -4.58824534E-09
   41.5679970        -1.66199712E-08
   41.6525269        -2.98179010E-08
   41.7370529        -4.40382948E-08
   41.8215828        -5.91018328E-08
   41.9061089        -7.47944497E-08
   41.9906387        -9.08690083E-08
   42.0751686        -1.07047875E-07
   42.1596947        -1.23026524E-07
   42.2442245        -1.38478001E-07
   42.3287544        -1.53058394E-07
   42.4132805        -1.66413187E-07
   42.4978104        -1.78184337E-07
   42.5823364        -1.88018390E-07
   42.6668663        -1.95574898E-07
   42.7513962        -2.00535851E-07
   42.8359222        -2.02614928E-07
   42.9204521        -2.01567801E-07
   43.0049820        -1.97201473E-07
   43.0895081        -1.89384650E-07
   43.1740379        -1.78056979E-07
   43.2585640        -1.63238212E-07
   43.3430939        -1.45036481E-07
   43.4276237        -1.23655852E-07
   43.5121498        -9.94025626E-08
   43.5966797        -7.26901703E-08
   43.6812096        -4.40430092E-08
   43.7657356        -1.40982079E-08
   43.8502655         1.63942655E-08
   43.9347916         4.65733265E-08
   44.0193214         7.54705169E-08
   44.1038513         1.02015804E-07
   44.1883774         1.25045688E-07
   44.2729073         1.43312874E-07
   44.3574371         1.55498441E-07
   44.4419632         1.60225738E-07
   44.5264931         1.56075927E-07
   44.6110191         1.41605511E-07
   44.6955490         1.15364919E-07
   44.7800789         7.59184644E-08
   44.8646049         2.18650573E-08
   44.9491348        -4.81402012E-08
   45.0336647        -1.35364644E-07
   45.1181908        -2.40976277E-07
   45.2027206        -3.66022817E-07
   45.2872467        -5.11411201E-07
   45.3717766        -6.77889375E-07
   45.4563065        -8.66027733E-07
   45.5408325        -1.07620428E-06
   45.6253624        -1.30859189E-06
   45.7098885        -1.56314638E-06
   45.7944183        -1.83959969E-06
   45.8789482        -2.13745807E-06
   45.9634743        -2.45599472E-06
   46.0480042        -2.79425694E-06
   46.1325340        -3.15107286E-06
   46.2170601        -3.52505867E-06
   46.3015900        -3.91462936E-06
   46.3861160        -4.31802255E-06
   46.4706459        -4.73331420E-06
   46.5551758        -5.15843840E-06
   46.6397018        -5.59122054E-06
   46.7242317        -6.02939963E-06
   46.8087616        -6.47066008E-06
   46.8932877        -6.91266860E-06
   46.9778175        -7.35310095E-06
   47.0623436        -7.78967114E-06
   47.1468735        -8.22017955E-06
   47.2314034        -8.64252979E-06
   47.3159294        -9.05476736E-06
   47.4004593        -9.45510874E-06
   47.4849892        -9.84196868E-06
   47.5695152        -1.02139793E-05
   47.6540451        -1.05700128E-05
   47.7385712        -1.09092025E-05
   47.8231010        -1.12309453E-05
   47.9076309        -1.15349249E-05
   47.9921570        -1.18210928E-05
   48.0766869        -1.20896821E-05
   48.1612167        -1.23411965E-05
   48.2457428        -1.25763963E-05
   48.3302727        -1.27962803E-05
   48.4147987        -1.30020562E-05
   48.4993286        -1.31951456E-05
   48.5838585        -1.33771073E-05
   48.6683846        -1.35496521E-05
   48.7529144        -1.37145544E-05
   48.8374405        -1.38736686E-05
   48.9219704        -1.40288557E-05
   49.0065002        -1.41819464E-05
   49.0910263        -1.43347106E-05
   49.1755562        -1.44888218E-05
   49.2600861        -1.46458033E-05
   49.3446121        -1.48070185E-05
   49.4291420        -1.49736115E-05
   49.5136681        -1.51465119E-05
   49.5981979        -1.53263863E-05
   49.6827278        -1.55136404E-05
   49.7672539        -1.57083941E-05
   49.8517838        -1.59104929E-05
   49.9363136        -1.61194876E-05
   50.0208397        -1.63346631E-05
   50.1053696        -1.65550427E-05
   50.1898956        -1.67794078E-05
   50.2744255        -1.70063158E-05
   50.3589554        -1.72341515E-05
   50.4434814        -1.74611450E-05
   50.5280113        -1.76854155E-05
   50.6125412        -1.79050185E-05
   50.6970673        -1.81179876E-05
   50.7815971        -1.83223801E-05
   50.8661232        -1.85163226E-05
   50.9506531        -1.86980742E-05
   51.0351830        -1.88660397E-05
   51.1197090        -1.90188530E-05
   51.2042389        -1.91553718E-05
   51.2887688        -1.92747539E-05
   51.3732948        -1.93764517E-05
   51.4578247        -1.94602653E-05
   51.5423508        -1.95263383E-05
   51.6268806        -1.95751727E-05
   51.7114105        -1.96076398E-05
   51.7959366        -1.96249548E-05
   51.8804665        -1.96286874E-05
   51.9649963        -1.96207275E-05
   52.0495224        -1.96032488E-05
   52.1340523        -1.95787034E-05
   52.2185783        -1.95497396E-05
   52.3031082        -1.95191878E-05
   52.3876381        -1.94899949E-05
   52.4721642        -1.94651711E-05
   52.5566940        -1.94477361E-05
   52.6412201        -1.94406548E-05
   52.7257500        -1.94467775E-05
   52.8102798        -1.94687909E-05
   52.8948059        -1.95091525E-05
   52.9793358        -1.95700468E-05
   53.0638657        -1.96533292E-05
   53.1483917        -1.97604859E-05
   53.2329216        -1.98926064E-05
   53.3174477        -2.00503364E-05
   53.4019775        -2.02338833E-05
   53.4865074        -2.04429725E-05
   53.5710335        -2.06768746E-05
   53.6555634        -2.09343962E-05
   53.7400932        -2.12138857E-05
   53.8246193        -2.15132732E-05
   53.9091492        -2.18300975E-05
   53.9936752        -2.21615373E-05
   54.0782051        -2.25044696E-05
   54.1627350        -2.28555091E-05
   54.2472610        -2.32110815E-05
   54.3317909        -2.35674743E-05
   54.4163208        -2.39209076E-05
   54.5008469        -2.42675924E-05
   54.5853767        -2.46038107E-05
   54.6699028        -2.49259829E-05
   54.7544327        -2.52307091E-05
   54.8389626        -2.55148589E-05
   54.9234886        -2.57756128E-05
   55.0080185        -2.60105189E-05
   55.0925484        -2.62175326E-05
   55.1770744        -2.63950515E-05
   55.2616043        -2.65419585E-05
   55.3461304        -2.66576280E-05
   55.4306602        -2.67419528E-05
   55.5151901        -2.67953128E-05
   55.5997162        -2.68186159E-05
   55.6842461        -2.68132499E-05
   55.7687759        -2.67810738E-05
   55.8533020        -2.67243577E-05
   55.9378319        -2.66457773E-05
   56.0223579        -2.65483559E-05
   56.1068878        -2.64353985E-05
   56.1914177        -2.63104375E-05
   56.2759438        -2.61771966E-05
   56.3604736        -2.60394754E-05
   56.4449997        -2.59011431E-05
   56.5295296        -2.57660249E-05
   56.6140594        -2.56378589E-05
   56.6985855        -2.55202249E-05
   56.7831154        -2.54165025E-05
   56.8676453        -2.53297821E-05
   56.9521713        -2.52628397E-05
   57.0367012        -2.52180907E-05
   57.1212273        -2.51975252E-05
   57.2057571        -2.52027203E-05
   57.2902870        -2.52347727E-05
   57.3748131        -2.52943082E-05
   57.4593430        -2.53814633E-05
   57.5438728        -2.54958868E-05
   57.6283989        -2.56367457E-05
   57.7129288        -2.58027449E-05
   57.7974548        -2.59921471E-05
   57.8819847        -2.62027897E-05
   57.9665146        -2.64321334E-05
   58.0510406        -2.66773004E-05
   58.1355705        -2.69351167E-05
   58.2201004        -2.72021625E-05
   58.3046265        -2.74748127E-05
   58.3891563        -2.77493182E-05
   58.4736824        -2.80218283E-05
   58.5582123        -2.82884885E-05
   58.6427422        -2.85454571E-05
   58.7272682        -2.87889943E-05
   58.8117981        -2.90154931E-05
   58.8963280        -2.92215555E-05
   58.9808540        -2.94040292E-05
   59.0653839        -2.95600494E-05
   59.1499100        -2.96871040E-05
   59.2344398        -2.97830520E-05
   59.3189697        -2.98461746E-05
   59.4034958        -2.98751784E-05
   59.4880257        -2.98692376E-05
   59.5725517        -2.98280302E-05
   59.6570816        -2.97517090E-05
   59.7416115        -2.96409216E-05
   59.8261375        -2.94968377E-05
   59.9106674        -2.93210942E-05
   59.9951973        -2.91158212E-05
   60.0797234        -2.88835945E-05
   60.1642532        -2.86274262E-05
   60.2487793        -2.83507215E-05
   60.3333092        -2.80572531E-05
   60.4178391        -2.77511062E-05
   60.5023651        -2.74366284E-05
   60.5868950        -2.71184072E-05
   60.6714249        -2.68011590E-05
   60.7559509        -2.64897226E-05
   60.8404808        -2.61889709E-05
   60.9250069        -2.59037406E-05
   61.0095367        -2.56387939E-05
   61.0940666        -2.53987128E-05
   61.1785927        -2.51878810E-05
   61.2631226        -2.50103840E-05
   61.3476524        -2.48699580E-05
   61.4321785        -2.47699427E-05
   61.5167084        -2.47132139E-05
   61.6012344        -2.47021344E-05
   61.6857643        -2.47385251E-05
   61.7702942        -2.48236065E-05
   61.8548203        -2.49579862E-05
   61.9393501        -2.51416259E-05
   62.0238800        -2.53738399E-05
   62.1084061        -2.56532676E-05
   62.1929359        -2.59778990E-05
   62.2774620        -2.63450747E-05
   62.3619919        -2.67515006E-05
   62.4465218        -2.71932895E-05
   62.5310478        -2.76660030E-05
   62.6155777        -2.81646626E-05
   62.7001076        -2.86838531E-05
   62.7846336        -2.92177319E-05
   62.8691635        -2.97601237E-05
   62.9536896        -3.03046036E-05
   63.0382195        -3.08445124E-05
   63.1227493        -3.13731070E-05
   63.2072754        -3.18835846E-05
   63.2918053        -3.23692111E-05
   63.3763313        -3.28233546E-05
   63.4608612        -3.32395975E-05
   63.5453911        -3.36118319E-05
   63.6299171        -3.39342841E-05
   63.7144470        -3.42016392E-05
   63.7989769        -3.44090731E-05
   63.8835030        -3.45523513E-05