  -4.50000000         0.00000000    
  -4.41547155         0.00000000    
  -4.33094311         0.00000000    
  -4.24641466         0.00000000    
  -4.16188622         0.00000000    
  -4.07735777         0.00000000    
  -3.99282932         0.00000000    
  -3.90830088         0.00000000    
  -3.82377243         0.00000000    
  -3.73924398         0.00000000    
  -3.65471554         0.00000000    
  -3.57018733         0.00000000    
  -3.48565888         0.00000000    
  -3.40113044         0.00000000    
  -3.31660199         0.00000000    
  -3.23207355         0.00000000    
  -3.14754510         0.00000000    
  -3.06301665         0.00000000    
  -2.97848821         0.00000000    
  -2.89395976         0.00000000    
  -2.80943131         0.00000000    
  -2.72490287         0.00000000    
  -2.64037442         0.00000000    
  -2.55584598         0.00000000    
  -2.47131753         0.00000000    
  -2.38678908         0.00000000    
  -2.30226064         5.30276981E-34
  -2.21773219         1.82141490E-33
  -2.13320374         2.89774400E-33
  -2.04867530        -1.82177556E-32
  -1.96414697        -3.24471706E-32
  -1.87961853         1.64562362E-32
  -1.79509008         1.34631966E-31
  -1.71056163         3.20160110E-31
  -1.62603319         5.77250998E-31
  -1.54150474         8.94158586E-31
  -1.45697629         1.28635315E-30
  -1.37244797         1.83404654E-30
  -1.28791952         2.36929651E-30
  -1.20339108         2.55749240E-30
  -1.11886263         1.93038968E-30
  -1.03433418         3.01570950E-30
 -0.949805737         4.75653464E-30
 -0.865277290         8.56329692E-30
 -0.780748844         1.47253384E-29
 -0.696220458         2.41832869E-29
 -0.611692011         3.40100631E-29
 -0.527163565         3.54491842E-29
 -0.442635119         1.61063069E-29
 -0.358106703        -4.20240983E-29
 -0.273578256        -1.53792692E-28
 -0.189049825        -3.36542873E-28
 -0.104521386        -6.02994173E-28
  -1.99929532E-02    -9.52211350E-28
   6.45354837E-02    -1.36037147E-27
  0.149063915        -1.77490468E-27
  0.233592346        -2.10270239E-27
  0.318120778        -2.20621457E-27
  0.402649224        -1.90491535E-27
  0.487177670        -9.84485699E-28
  0.571706116         7.83533735E-28
  0.656234503         3.60942229E-27
  0.740762949         7.64460759E-27
  0.825291395         1.29335702E-26
  0.909819841         1.93647510E-26
  0.994348288         2.66268659E-26
   1.07887673         3.41798177E-26
   1.16340518         4.12455339E-26
   1.24793363         4.68233043E-26
   1.33246195         4.97282969E-26
   1.41699040         4.86476469E-26
   1.50151885         4.22033959E-26
   1.58604729         2.90118173E-26
   1.67057574         7.73155640E-27
   1.75510418        -2.28962101E-26
   1.83963263        -6.39930746E-26
   1.92416108        -1.16430841E-25
   2.00868940        -1.80593865E-25
   2.09321785        -2.55935518E-25
   2.17774630        -3.40249612E-25
   2.26227474        -4.28615148E-25
   2.34680319        -5.12040936E-25
   2.43133163        -5.75960955E-25
   2.51586008        -5.98887619E-25
   2.60038853        -5.51711962E-25
   2.68491697        -3.98322076E-25
   2.76944542        -9.83189825E-26
   2.85397387         3.87369260E-25
   2.93850231         1.08737948E-24
   3.02303076         2.00709801E-24
   3.10755920         3.11265699E-24
   3.19208765         4.31317194E-24
   3.27661610         5.44387468E-24
   3.36114454         6.25390309E-24
   3.44567299         6.40369239E-24
   3.53020120         5.47734486E-24
   3.61472964         3.01530051E-24
   3.69925809        -1.42878734E-24
   3.78378654        -8.20567434E-24
   3.86831498        -1.74655240E-23
   3.95284343        -2.90384622E-23
   4.03737211        -4.23153509E-23
   4.12190056        -5.61495100E-23
   4.20642900        -6.88053569E-23
   4.29095745        -7.79828890E-23
   4.37548542        -8.09448913E-23
   4.46001387        -7.47681672E-23
   4.54454231        -5.67254731E-23
   4.62907076        -2.47872576E-23
   4.71359921         2.17940559E-23
   4.79812765         8.18817109E-23
   4.88265610         1.51926229E-22
   4.96718454         2.25625225E-22
   5.05171299         2.93896656E-22
   5.13624144         3.45283207E-22
   5.22076988         3.66881890E-22
   5.30529833         3.45831219E-22
   5.38982677         2.71324101E-22
   5.47435522         1.37002243E-22
   5.55888367        -5.65077159E-23
   5.64341211        -2.99271361E-22
   5.72794056        -5.70376525E-22
   5.81246901        -8.37397131E-22
   5.89699745        -1.05747186E-21
   5.98152590        -1.18037573E-21
   6.06605434        -1.15380750E-21
   6.15058279        -9.30851324E-22
   6.23511124        -4.79248474E-22
   6.31963968         2.08255202E-22
   6.40416813         1.10358536E-21
   6.48869658         2.13449958E-21
   6.57322502         3.17886661E-21
   6.65775347         4.06385797E-21
   6.74228191         4.57162005E-21
   6.82681036         4.45275484E-21
   6.91133881         3.44820861E-21
   6.99586725         1.31947283E-21
   7.08039570        -2.11410219E-21
   7.16492414        -6.93317909E-21
   7.24945259        -1.30748061E-20
   7.33398104        -2.02918374E-20
   7.41850948        -2.81204928E-20
   7.50303793        -3.58618242E-20
   7.58756638        -4.25827345E-20
   7.67209482        -4.71417534E-20
   7.75662327        -4.82435838E-20
   7.84115171        -4.45249319E-20
   7.92567968        -3.46716760E-20
   8.01020813        -1.75644226E-20
   8.09473705         7.55313481E-21
   8.17926502         4.08929499E-20
   8.26379395         8.19416876E-20
   8.34832191         1.29296757E-19
   8.43285084         1.80539032E-19
   8.51737881         2.32164291E-19
   8.60190773         2.79595448E-19
   8.68643570         3.17297772E-19
   8.77096462         3.39013434E-19
   8.85549259         3.38128894E-19
   8.94002151         3.08175184E-19
   9.02454948         2.43453627E-19
   9.10907841         1.39759674E-19
   9.19360638        -4.83248446E-21
   9.27813530        -1.89185124E-19
   9.36266327        -4.08382842E-19
   9.44719219        -6.53175209E-19
   9.53172016        -9.09667684E-19
   9.61624908        -1.15935060E-18
   9.70077705        -1.37955125E-18
   9.78530502        -1.54436213E-18
   9.86983395        -1.62608509E-18
   9.95436192        -1.59717327E-18
   10.0388908        -1.43261458E-18
   10.1234188        -1.11264871E-18
   10.2079477        -6.25653463E-19
   10.2924757         2.90050656E-20
   10.3770046         8.38413777E-19
   10.4615326         1.77409769E-18
   10.5460615         2.79083522E-18
   10.6305895         3.82655033E-18
   10.7151184         4.80348869E-18
   10.7996464         5.63085128E-18
   10.8841753         6.20891942E-18
   10.9687033         6.43469134E-18
   11.0532322         6.20885159E-18
   11.1377602         5.44388406E-18
   11.2222891         4.07293228E-18
   11.3068171         2.05899275E-18
   11.3913460        -5.96105382E-19
   11.4758739        -3.84355055E-18
   11.5604029        -7.58087788E-18
   11.6449308        -1.16474756E-17
   11.7294598        -1.58229708E-17
   11.8139877        -1.98291224E-17
   11.8985167        -2.33359314E-17
   11.9830446        -2.59723578E-17
   12.0675735        -2.73420912E-17
   12.1521015        -2.70444766E-17
   12.2366304        -2.47005528E-17
   12.3211584        -1.99836149E-17
   12.4056873        -1.26535746E-17
   12.4902153        -2.59364818E-18
   12.5747442         1.01524236E-17
   12.6592722         2.53451184E-17
   12.7438011         4.25186717E-17
   12.8283291         6.09588569E-17
   12.9128580         7.96927243E-17
   12.9973860         9.74938363E-17
   13.0819149         1.12907004E-16
   13.1664429         1.24294819E-16
   13.2509708         1.29908821E-16
   13.3354998         1.27985315E-16
   13.4200277         1.16865109E-16
   13.5045567         9.51336584E-17
   13.5890846         6.17761643E-17
   13.6736135         1.63391779E-17
   13.7581415        -4.09114796E-17
   13.8426704        -1.08849385E-16
   13.9271984        -1.85376840E-16
   14.0117273        -2.67359174E-16
   14.0962553        -3.50619071E-16
   14.1807842        -4.30002364E-16
   14.2653122        -4.99526405E-16
   14.3498411        -5.52614142E-16
   14.4343691        -5.82415672E-16
   14.5188980        -5.82208626E-16
   14.6034260        -5.45864877E-16
   14.6879549        -4.68360198E-16
   14.7724829        -3.46300871E-16
   14.8570118        -1.78433234E-16
   14.9415398         3.39021992E-17
   15.0260687         2.86411433E-16
   15.1105967         5.71618226E-16
   15.1951256         8.78803300E-16
   15.2796535         1.19413667E-15
   15.3641825         1.50102073E-15
   15.4487104         1.78065066E-15
   15.5332394         2.01278110E-15
   15.6177673         2.17668282E-15
   15.7022963         2.25224112E-15
   15.7868242         2.22115840E-15
   15.8713531         2.06819272E-15
   15.9558811         1.78236696E-15
   16.0404091         1.35807799E-15
   16.1249390         7.96033146E-16
   16.2094669         1.03955751E-16
   16.2939949        -7.03007118E-16
   16.3785229        -1.60220443E-15
   16.4630527        -2.56376248E-15
   16.5475807        -3.55124154E-15
   16.6321087        -4.52264094E-15
   16.7166367        -5.43175082E-15
   16.8011646        -6.22978672E-15
   16.8856945        -6.86725863E-15
   16.9702225        -7.29600892E-15
   17.0547504        -7.47133797E-15
   17.1392784        -7.35412385E-15
   17.2238083        -6.91288576E-15
   17.3083363        -6.12566435E-15
   17.3928642        -4.98167012E-15
   17.4773922        -3.48261810E-15
   17.5619221        -1.64369560E-15
   17.6464500         5.05921662E-16
   17.7309780         2.92297835E-15
   17.8155060         5.55055312E-15
   17.9000359         8.31894520E-15
   17.9845638         1.11469849E-14
   18.0690918         1.39438098E-14
   18.1536198         1.66109310E-14
   18.2381496         1.90445990E-14
   18.3226776         2.11383492E-14
   18.4072056         2.27856217E-14
   18.4917336         2.38823667E-14
   18.5762634         2.43296119E-14
   18.6607914         2.40358541E-14
   18.7453194         2.29193394E-14
   18.8298473         2.09101925E-14
   18.9143772         1.79525211E-14
   18.9989052         1.40064919E-14
   19.0834332         9.05067579E-15
   19.1679611         3.08457742E-15
   19.2524910        -3.86825971E-15
   19.3370190        -1.17566648E-14
   19.4215469        -2.04976095E-14
   19.5060749        -2.99713528E-14
   19.5906048        -4.00162657E-14
   19.6751328        -5.04232886E-14
   19.7596607        -6.09309017E-14
   19.8441887        -7.12206105E-14
   19.9287186        -8.09142046E-14
   20.0132465        -8.95732802E-14
   20.0977745        -9.67016452E-14
   20.1823025        -1.01752143E-13
   20.2668324        -1.04137917E-13
   20.3513603        -1.03249278E-13
   20.4358883        -9.84763486E-14
   20.5204163        -8.92375976E-14
   20.6049442        -7.50138544E-14
   20.6894741        -5.53873455E-14
   20.7740021        -3.00841437E-14
   20.8585300         9.81362738E-16
   20.9430580         3.76625035E-14
   21.0275879         7.95391923E-14
   21.1121159         1.25882838E-13
   21.1966438         1.75630140E-13
   21.2811718         2.27369068E-13
   21.3657017         2.79340190E-13
   21.4502296         3.29455376E-13
   21.5347576         3.75336562E-13
   21.6192856         4.14375294E-13
   21.7038155         4.43812630E-13
   21.7883434         4.60840784E-13
   21.8728714         4.62720899E-13
   21.9573994         4.46916321E-13
   22.0419292         4.11235255E-13
   22.1264572         3.53978511E-13
   22.2109852         2.74083517E-13
   22.2955132         1.71260318E-13
   22.3800430         4.61099258E-14
   22.4645710        -9.97806235E-14
   22.5490990        -2.63773893E-13
   22.6336269        -4.42154126E-13
   22.7181568        -6.30139333E-13
   22.8026848        -8.21938763E-13
   22.8872128        -1.01085394E-12
   22.9717407        -1.18942681E-12
   23.0562706        -1.34963102E-12
   23.1407986        -1.48310151E-12
   23.2253265        -1.58140200E-12
   23.3098545        -1.63631901E-12
   23.3943844        -1.64018040E-12
   23.4789124        -1.58618453E-12
   23.5634403        -1.46873637E-12
   23.6479683        -1.28378048E-12
   23.7324982        -1.02911657E-12
   23.8170261        -7.04692110E-13
   23.9015541        -3.12857650E-13
   23.9860821         1.41423358E-13
   24.0706100         6.50425839E-13
   24.1551399         1.20358595E-12
   24.2396679         1.78750764E-12
   24.3241959         2.38606248E-12
   24.4087238         2.98059580E-12
   24.4932537         3.55024777E-12
   24.5777817         4.07238999E-12
   24.6623096         4.52318391E-12
   24.7468376         4.87825145E-12
   24.8313675         5.11346824E-12
   24.9158955         5.20582535E-12
   25.0004234         5.13439204E-12
   25.0849514         4.88129849E-12
   25.1694813         4.43275538E-12
   25.2540092         3.78002924E-12
   25.3385372         2.92036534E-12
   25.4230652         1.85779972E-12
   25.5075951         6.03813603E-13
   25.5921230        -8.22196749E-13
   25.6766510        -2.39269130E-12
   25.7611790        -4.07201876E-12
   25.8457088        -5.81673945E-12
   25.9302368        -7.57625993E-12
   26.0147648        -9.29378883E-12
   26.0992928        -1.09075986E-11
   26.1838226        -1.23525842E-11
   26.2683506        -1.35621262E-11
   26.3528786        -1.44701482E-11
   26.4374065        -1.50134141E-11
   26.5219364        -1.51339080E-11
   26.6064644        -1.47813393E-11
   26.6909924        -1.39155857E-11
   26.7755203        -1.25090823E-11
   26.8600502        -1.05490269E-11
   26.9445782        -8.03929319E-12
   27.0291061        -5.00202744E-12
   27.1136341        -1.47875245E-12
   27.1981640         2.46902954E-12
   27.2826920         6.75985006E-12
   27.3672199         1.12929692E-11
   27.4517479         1.59497554E-11
   27.5362759         2.05958254E-11
   27.6208057         2.50839211E-11
   27.7053337         2.92574749E-11
   27.7898617         3.29548541E-11
   27.8743896         3.60141569E-11
   27.9589195         3.82784360E-11
   28.0434475         3.96012841E-11
   28.1279755         3.98524824E-11
   28.2125034         3.89236386E-11
   28.2970333         3.67335572E-11
   28.3815613         3.32331246E-11
   28.4660892         2.84094918E-11
   28.5506172         2.22894498E-11
   28.6351471         1.49416660E-11
   28.7196751         6.47775063E-12
   28.8042030        -2.94800122E-12
   28.8887310        -1.31402901E-11
   28.9732609        -2.38658815E-11
   29.0577888        -3.48580817E-11
   29.1423168        -4.58225437E-11
   29.2268448        -5.64442208E-11
   29.3113747        -6.63953614E-11
   29.3959026        -7.53442586E-11
   29.4804306        -8.29645727E-11
   29.5649586        -8.89448376E-11
   29.6494884        -9.29980953E-11
   29.7340164        -9.48709791E-11
   29.8185444        -9.43524286E-11
   29.9030724        -9.12813922E-11
   29.9876022        -8.55535642E-11
   30.0721302        -7.71267286E-11
   30.1566582        -6.60246927E-11
   30.2411861        -5.23398026E-11
   30.3257160        -3.62337348E-11
   30.4102440        -1.79366418E-11
   30.4947720         2.25511537E-12
   30.5792999         2.39829771E-11
   30.6638298         4.68314693E-11
   30.7483578         7.03349531E-11
   30.8328857         9.39854236E-11
   30.9174137         1.17241480E-10
   31.0019417         1.39538062E-10
   31.0864716         1.60296929E-10
   31.1709995         1.78937892E-10
   31.2555275         1.94889938E-10
   31.3400555         2.07603087E-10
   31.4245853         2.16560048E-10
   31.5091133         2.21287697E-10
   31.5936413         2.21368410E-10
   31.6781693         2.16451107E-10
   31.7626991         2.06261411E-10
   31.8472271         1.90611651E-10
   31.9317551         1.69409292E-10
   32.0162849         1.42665282E-10
   32.1008110         1.10500754E-10
   32.1853409         7.31527061E-11
   32.2698708         3.09782894E-11
   32.3543968        -1.55423487E-11
   32.4389267        -6.58049934E-11
   32.5234528        -1.19082008E-10
   32.6079826        -1.74525241E-10
   32.6925125        -2.31171138E-10
   32.7770386        -2.87948193E-10
   32.8615685        -3.43687245E-10
   32.9460983        -3.97134603E-10
   33.0306244        -4.46968046E-10
   33.1151543        -4.91816254E-10
   33.1996803        -5.30280764E-10
   33.2842102        -5.60961610E-10
   33.3687401        -5.82485726E-10
   33.4532661        -5.93537497E-10
   33.5377960        -5.92892624E-10
   33.6223259        -5.79452430E-10
   33.7068520        -5.52280832E-10
   33.7913818        -5.10640363E-10
   33.8759079        -4.54028676E-10
   33.9604378        -3.82213206E-10
   34.0449677        -2.95263508E-10
   34.1294937        -1.93580332E-10
   34.2140236        -7.79191711E-11
   34.2985535         5.05906636E-11
   34.3830795         1.90434946E-10
   34.4676094         3.39711176E-10
   34.5521355         4.96133690E-10
   34.6366653         6.57048471E-10
   34.7211952         8.19459334E-10
   34.8057213         9.80062920E-10
   34.8902512         1.13529630E-09
   34.9747772         1.28139444E-09
   35.0593071         1.41445722E-09
   35.1438370         1.53052715E-09
   35.2283630         1.62567493E-09
   35.3128929         1.69609016E-09
   35.3974228         1.73817838E-09
   35.4819489         1.74866022E-09
   35.5664787         1.72466985E-09
   35.6510048         1.66385072E-09
   35.7355347         1.56444446E-09
   35.8200645         1.42537415E-09
   35.9045906         1.24630894E-09
   35.9891205         1.02772224E-09
   36.0736504         7.70925046E-10
   36.1581764         4.78084128E-10
   36.2427063         1.52216947E-10
   36.3272324        -2.02834777E-10
   36.4117622        -5.82455140E-10
   36.4962921        -9.81324133E-10
   36.5808182        -1.39351120E-09
   36.6653481        -1.81258342E-09
   36.7498779        -2.23173169E-09
   36.8344040        -2.64390576E-09
   36.9189339        -3.04195646E-09
   37.0034599        -3.41877926E-09
   37.0879898        -3.76745213E-09
   37.1725197        -4.08136236E-09
   37.2570457        -4.35432002E-09
   37.3415756        -4.58064564E-09
   37.4261055        -4.75523354E-09
   37.5106316        -4.87358909E-09
   37.5951614        -4.93182295E-09
   37.6796875        -4.92662311E-09
   37.7642174        -4.85518514E-09
   37.8487473        -4.71511497E-09
   37.9332733        -4.50430448E-09
   38.0178032        -4.22078283E-09
   38.1023293        -3.86256183E-09
   38.1868591        -3.42746787E-09
   38.2713890        -2.91299029E-09
   38.3559151        -2.31614328E-09
   38.4404449        -1.63336233E-09
   38.5249748        -8.60447158E-10
   38.6095009         7.44406359E-12
   38.6940308         9.75723391E-10
   38.7785568         2.05022754E-09
   38.8630867         3.23698424E-09
   38.9476166         4.54188465E-09
   39.0321426         5.97026473E-09
   39.1166725         7.52638218E-09
   39.2012024         9.21282606E-09
   39.2857285         1.10298224E-08
   39.3702583         1.29745112E-08
   39.4547844         1.50401274E-08
   39.5393143         1.72152212E-08
   39.6238441         1.94828296E-08
   39.7083702         2.18197318E-08
   39.7929001         2.41957352E-08
   39.8774300         2.65730975E-08
   39.9619560         2.89060633E-08
   40.0464859         3.11406190E-08
   40.1310120         3.32144552E-08
   40.2155418         3.50571376E-08
   40.3000717         3.65906274E-08
   40.3845978         3.77300822E-08
   40.4691277         3.83849610E-08
   40.5536575         3.84604917E-08
   40.6381836         3.78594862E-08
   40.7227135         3.64844688E-08
   40.8072395         3.42400917E-08
   40.8917694         3.10358992E-08
   40.9762993         2.67892766E-08
   41.0608253         2.14285816E-08
   41.1453552         1.48964112E-08
   41.2298851         7.15293291E-09
   41.3144112        -1.82089022E-09
   41.3989410        -1.20201582E-08
   41.4834671        -2.34131381E-08
   41.5679970        -3.59387400E-08
   41.6525269        -4.95044254E-08
   41.7370529        -6.39845865E-08
   41.8215828        -7.92197525E-08
   41.9061089        -9.50163752E-08
   41.9906387        -1.11147465E-07
   42.0751686        -1.27354326E-07
   42.1596947        -1.43348814E-07
   42.2442245        -1.58817201E-07
   42.3287544        -1.73424354E-07
   42.4132805        -1.86819747E-07
   42.4978104        -1.98643491E-07
   42.5823364        -2.08534189E-07
   42.6668663        -2.16137153E-07
   42.7513962        -2.21113410E-07
   42.8359222        -2.23149598E-07
   42.9204521        -2.21968051E-07
   43.0049820        -2.17337274E-07
   43.0895081        -2.09082742E-07
   43.1740379        -1.97097265E-07
   43.2585640        -1.81351197E-07
   43.3430939        -1.61902292E-07
   43.4276237        -1.38904397E-07
   43.5121498        -1.12615545E-07
   43.5966797        -8.34043234E-08
   43.6812096        -5.17552401E-08
   43.7657356        -1.82721660E-08
   43.8502655         1.63200813E-08
   43.9347916         5.11760909E-08
   44.0193214         8.53324096E-08
   44.1038513         1.17712339E-07
   44.1883774         1.47133051E-07
   44.2729073         1.72315154E-07
   44.3574371         1.91894259E-07
   44.4419632         2.04435196E-07
   44.5264931         2.08448128E-07
   44.6110191         2.02406753E-07
   44.6955490         1.84768425E-07
   44.7800789         1.53995401E-07
   44.8646049         1.08578057E-07
   44.9491348         4.70584247E-08
   45.0336647        -3.19451345E-08
   45.1181908        -1.29713371E-07
   45.2027206        -2.47401459E-07
   45.2872467        -3.86015046E-07
   45.3717766        -5.46387184E-07
   45.4563065        -7.29156568E-07
   45.5408325        -9.34747675E-07
   45.6253624        -1.16335298E-06
   45.7098885        -1.41491807E-06
   45.7944183        -1.68912879E-06
   45.8789482        -1.98540374E-06
   45.9634743        -2.30288629E-06
   46.0480042        -2.64044479E-06
   46.1325340        -2.99667522E-06
   46.2170601        -3.36990593E-06
   46.3015900        -3.75820696E-06
   46.3861160        -4.15940713E-06
   46.4706459        -4.57111173E-06
   46.5551758        -4.99072075E-06
   46.6397018        -5.41546069E-06
   46.7242317        -5.84240797E-06
   46.8087616        -6.26852443E-06
   46.8932877        -6.69069141E-06
   46.9778175        -7.10574477E-06
   47.0623436        -7.51051539E-06
   47.1468735        -7.90186641E-06
   47.2314034        -8.27673466E-06
   47.3159294        -8.63216883E-06
   47.4004593        -8.96536949E-06
   47.4849892        -9.27373003E-06
   47.5695152        -9.55486030E-06
   47.6540451        -9.80663663E-06
   47.7385712        -1.00272182E-05
   47.8231010        -1.02150789E-05
   47.9076309        -1.03690309E-05
   47.9921570        -1.04882338E-05
   48.0766869        -1.05722129E-05
   48.1612167        -1.06208681E-05
   48.2457428        -1.06344723E-05
   48.3302727        -1.06136613E-05
   48.4147987        -1.05594327E-05
   48.4993286        -1.04731307E-05
   48.5838585        -1.03564180E-05
   48.6683846        -1.02112563E-05
   48.7529144        -1.00398674E-05
   48.8374405        -9.84471080E-06
   48.9219704        -9.62843751E-06
   49.0065002        -9.39384427E-06
   49.0910263        -9.14383872E-06
   49.1755562        -8.88139220E-06
   49.2600861        -8.60948785E-06
   49.3446121        -8.33108243E-06
   49.4291420        -8.04904812E-06
   49.5136681        -7.76614797E-06
   49.5981979        -7.48497905E-06
   49.6827278        -7.20794196E-06
   49.7672539        -6.93720676E-06
   49.8517838        -6.67468476E-06
   49.9363136        -6.42199711E-06
   50.0208397        -6.18047443E-06
   50.1053696        -5.95112715E-06
   50.1898956        -5.73465331E-06
   50.2744255        -5.53142900E-06
   50.3589554        -5.34152741E-06
   50.4434814        -5.16472664E-06
   50.5280113        -5.00052920E-06
   50.6125412        -4.84819248E-06
   50.6970673        -4.70675332E-06
   50.7815971        -4.57506985E-06
   50.8661232        -4.45185196E-06
   50.9506531        -4.33571086E-06
   51.0351830        -4.22519679E-06
   51.1197090        -4.11884093E-06
   51.2042389        -4.01520401E-06
   51.2887688        -3.91291405E-06
   51.3732948        -3.81071004E-06
   51.4578247        -3.70747603E-06
   51.5423508        -3.60226773E-06
   51.6268806        -3.49435322E-06
   51.7114105        -3.38322752E-06
   51.7959366        -3.26862323E-06
   51.8804665        -3.15053308E-06
   51.9649963        -3.02920398E-06
   52.0495224        -2.90513367E-06
   52.1340523        -2.77906884E-06
   52.2185783        -2.65197536E-06
   52.3031082        -2.52502127E-06
   52.3876381        -2.39955739E-06
   52.4721642        -2.27706846E-06
   52.5566940        -2.15915088E-06
   52.6412201        -2.04745675E-06
   52.7257500        -1.94367021E-06
   52.8102798        -1.84944452E-06
   52.8948059        -1.76637798E-06
   52.9793358        -1.69595774E-06
   53.0638657        -1.63952654E-06
   53.1483917        -1.59824242E-06
   53.2329216        -1.57304873E-06
   53.3174477        -1.56464876E-06
   53.4019775        -1.57347108E-06
   53.4865074        -1.59967249E-06
   53.5710335        -1.64311348E-06
   53.6555634        -1.70336216E-06
   53.7400932        -1.77969434E-06
   53.8246193        -1.87110220E-06
   53.9091492        -1.97632289E-06
   53.9936752        -2.09384962E-06
   54.0782051        -2.22197127E-06
   54.1627350        -2.35878224E-06
   54.2472610        -2.50225139E-06
   54.3317909        -2.65024278E-06
   54.4163208        -2.80055474E-06
   54.5008469        -2.95097993E-06
   54.5853767        -3.09931943E-06
   54.6699028        -3.24346252E-06
   54.7544327        -3.38138921E-06
   54.8389626        -3.51122230E-06
   54.9234886        -3.63126310E-06
   55.0080185        -3.74001775E-06
   55.0925484        -3.83620772E-06
   55.1770744        -3.91879439E-06
   55.2616043        -3.98699103E-06
   55.3461304        -4.04026559E-06
   55.4306602        -4.07833431E-06
   55.5151901        -4.10115399E-06
   55.5997162        -4.10891425E-06
   55.6842461        -4.10201483E-06
   55.7687759        -4.08103688E-06
   55.8533020        -4.04673165E-06
   55.9378319        -3.99995997E-06
   56.0223579        -3.94170274E-06
   56.1068878        -3.87298724E-06
   56.1914177        -3.79488438E-06
   56.2759438        -3.70845828E-06
   56.3604736        -3.61473394E-06
   56.4449997        -3.51468884E-06
   56.5295296        -3.40920860E-06
   56.6140594        -3.29907857E-06
   56.6985855        -3.18495358E-06
   56.7831154        -3.06736638E-06
   56.8676453        -2.94669962E-06
   56.9521713        -2.82320320E-06
   57.0367012        -2.69698990E-06
   57.1212273        -2.56804037E-06
   57.2057571        -2.43622867E-06
   57.2902870        -2.30132650E-06
   57.3748131        -2.16303852E-06
   57.4593430        -2.02101182E-06
   57.5438728        -1.87487331E-06
   57.6283989        -1.72425905E-06
   57.7129288        -1.56882936E-06
   57.7974548        -1.40830537E-06
   57.8819847        -1.24249379E-06
   57.9665146        -1.07130938E-06
   58.0510406        -8.94799371E-07
   58.1355705        -7.13155828E-07
   58.2201004        -5.26723682E-07
   58.3046265        -3.36039392E-07
   58.3891563        -1.41778870E-07
   58.4736824         5.51779671E-08
   58.5582123         2.53800522E-07
   58.6427422         4.52906249E-07
   58.7272682         6.51162395E-07
   58.8117981         8.47102797E-07
   58.8963280         1.03919422E-06
   58.9808540         1.22580832E-06
   59.0653839         1.40526981E-06
   59.1499100         1.57589545E-06
   59.2344398         1.73603053E-06
   59.3189697         1.88405227E-06
   59.4034958         2.01842568E-06
   59.4880257         2.13772455E-06
   59.5725517         2.24065684E-06
   59.6570816         2.32610614E-06
   59.7416115         2.39312089E-06
   59.8261375         2.44097760E-06
   59.9106674         2.46915670E-06
   59.9951973         2.47738444E-06
   60.0797234         2.46560489E-06
   60.1642532         2.43403247E-06
   60.2487793         2.38311054E-06
   60.3333092         2.31351760E-06
   60.4178391         2.22616836E-06
   60.5023651         2.12219402E-06
   60.5868950         2.00294699E-06
   60.6714249         1.86995555E-06
   60.7559509         1.72491809E-06
   60.8404808         1.56971919E-06
   60.9250069         1.40634700E-06
   61.0095367         1.23692439E-06
   61.0940666         1.06367042E-06
   61.1785927         8.88863383E-07
   61.2631226         7.14853229E-07
   61.3476524         5.44017155E-07
   61.4321785         3.78751366E-07
   61.5167084         2.21442491E-07
   61.6012344         7.44522666E-08
   61.6857643        -5.98984684E-08
   61.7702942        -1.79352014E-07
   61.8548203        -2.81727097E-07
   61.9393501        -3.64960528E-07
   62.0238800        -4.27097859E-07
   62.1084061        -4.66325446E-07
   62.1929359        -4.81002303E-07
   62.2774620        -4.69674404E-07
   62.3619919        -4.31086903E-07
   62.4465218        -3.64233216E-07
   62.5310478        -2.68345872E-07
   62.6155777        -1.42948650E-07
   62.7001076         1.21415553E-08
   62.7846336         1.96782864E-07
   62.8691635         4.10489577E-07
   62.9536896         6.52422727E-07
   63.0382195         9.21367757E-07
   63.1227493         1.21573430E-06
   63.2072754         1.53354119E-06
   63.2918053         1.87242529E-06
   63.3763313         2.22965036E-06
   63.4608612         2.60210595E-06
   63.5453911         2.98636337E-06
   63.6299171         3.37867300E-06
   63.7144470         3.77498031E-06
   63.7989769         4.17103638E-06
   63.8835030         4.56238286E-06