  -4.50000000         0.00000000    
  -4.41547155         0.00000000    
  -4.33094311         0.00000000    
  -4.24641466         0.00000000    
  -4.16188622         0.00000000    
  -4.07735777         0.00000000    
  -3.99282932         0.00000000    
  -3.90830088         0.00000000    
  -3.82377243         0.00000000    
  -3.73924398         0.00000000    
  -3.65471554         0.00000000    
  -3.57018733         0.00000000    
  -3.48565888         0.00000000    
  -3.40113044         0.00000000    
  -3.31660199         0.00000000    
  -3.23207355         0.00000000    
  -3.14754510         0.00000000    
  -3.06301665         0.00000000    
  -2.97848821         0.00000000    
  -2.89395976         0.00000000    
  -2.80943131         0.00000000    
  -2.72490287         0.00000000    
  -2.64037442         0.00000000    
  -2.55584598         0.00000000    
  -2.47131753         0.00000000    
  -2.38678908         0.00000000    
  -2.30226064        -9.18925352E-34
  -2.21773219        -2.04222289E-33
  -2.13320374        -8.45780951E-34
  -2.04867530         2.22608214E-32
  -1.96414697         3.12397468E-32
  -1.87961853         7.20801792E-32
  -1.79509008         1.83797640E-31
  -1.71056163         4.09241917E-31
  -1.62603319         7.76361592E-31
  -1.54150474         1.33572110E-30
  -1.45697629         2.14455591E-30
  -1.37244797         3.11714902E-30
  -1.28791952         4.06496291E-30
  -1.20339108         4.32592228E-30
  -1.11886263         2.49346351E-30
  -1.03433418         4.24664656E-30
 -0.949805737         8.19708886E-30
 -0.865277290         1.66103145E-30
 -0.780748844        -1.74141638E-29
 -0.696220458        -5.06900970E-29
 -0.611692011        -1.14519779E-28
 -0.527163565        -2.32552430E-28
 -0.442635119        -4.35089097E-28
 -0.358106703        -7.54000177E-28
 -0.273578256        -1.23001808E-27
 -0.189049825        -1.89484024E-27
 -0.104521386        -2.77010048E-27
  -1.99929532E-02    -3.85043778E-27
   6.45354837E-02    -5.09455309E-27
  0.149063915        -6.40883041E-27
  0.233592346        -7.64494194E-27
  0.318120778        -8.59010746E-27
  0.402649224        -8.97419798E-27
  0.487177670        -8.47771636E-27
  0.571706116        -6.76824553E-27
  0.656234503        -3.54549181E-27
  0.740762949         1.39225899E-27
  0.825291395         8.06227478E-27
  0.909819841         1.61967180E-26
  0.994348288         2.51342609E-26
   1.07887673         3.37173665E-26
   1.16340518         4.02128194E-26
   1.24793363         4.22787075E-26
   1.33246195         3.70058564E-26
   1.41699040         2.10634721E-26
   1.50151885        -9.02248490E-27
   1.58604729        -5.64364589E-26
   1.67057574        -1.23478857E-25
   1.75510418        -2.10821351E-25
   1.83963263        -3.16657815E-25
   1.92416108        -4.35827654E-25
   2.00868940        -5.59032887E-25
   2.09321785        -6.72304932E-25
   2.17774630        -7.56911250E-25
   2.26227474        -7.89898356E-25
   2.34680319        -7.45452453E-25
   2.43133163        -5.97204486E-25
   2.51586008        -3.21502826E-25
   2.60038853         9.84715963E-26
   2.68491697         6.68058937E-25
   2.76944542         1.37648408E-24
   2.85397387         2.19296883E-24
   2.93850231         3.06454180E-24
   3.02303076         3.91656778E-24
   3.10755920         4.65699933E-24
   3.19208765         5.18513698E-24
   3.27661610         5.40521300E-24
   3.36114454         5.24448377E-24
   3.44567299         4.67453216E-24
   3.53020120         3.73347198E-24
   3.61472964         2.54559596E-24
   3.69925809         1.33393707E-24
   3.78378654         4.20548109E-25
   3.86831498         2.09073236E-25
   3.95284343         1.14484031E-24
   4.03737211         3.64920152E-24
   4.12190056         8.02764105E-24
   4.20642900         1.43547962E-23
   4.29095745         2.23445798E-23
   4.37548542         3.12184509E-23
   4.46001387         3.95911870E-23
   4.54454231         4.53967994E-23
   4.62907076         4.58823748E-23
   4.71359921         3.76965577E-23
   4.79812765         1.70982698E-23
   4.88265610        -1.96961623E-23
   4.96718454        -7.60192753E-23
   5.05171299        -1.54120146E-22
   5.13624144        -2.54418497E-22
   5.22076988        -3.74694869E-22
   5.30529833        -5.09283653E-22
   5.38982677        -6.48363188E-22
   5.47435522        -7.77449004E-22
   5.55888367        -8.77211307E-22
   5.64341211        -9.23737793E-22
   5.72794056        -8.89355070E-22
   5.81246901        -7.44101922E-22
   5.89699745        -4.57907881E-22
   5.98152590        -3.48451655E-24
   6.06605434         6.40127732E-22
   6.15058279         1.48349522E-21
   6.23511124         2.52241983E-21
   6.31963968         3.73358228E-21
   6.40416813         5.07057071E-21
   6.48869658         6.46080484E-21
   6.57322502         7.80382466E-21
   6.65775347         8.97156215E-21
   6.74228191         9.81107939E-21
   6.82681036         1.01502679E-20
   6.91133881         9.80680212E-21
   6.99586725         8.60053206E-21
   7.08039570         6.36905282E-21
   7.16492414         2.98610384E-21
   7.24945259        -1.61822953E-21
   7.33398104        -7.43662997E-21
   7.41850948        -1.43647474E-20
   7.50303793        -2.21842764E-20
   7.58756638        -3.05512503E-20
   7.67209482        -3.89914814E-20
   7.75662327        -4.69053865E-20
   7.84115171        -5.35837229E-20
   7.92567968        -5.82352406E-20
   8.01020813        -6.00268168E-20
   8.09473705        -5.81352099E-20
   8.17926502        -5.18088809E-20
   8.26379395        -4.04376387E-20
   8.34832191        -2.36263204E-20
   8.43285084        -1.26856154E-21
   8.51737881         2.63839386E-20
   8.60190773         5.86618460E-20
   8.68643570         9.44330067E-20
   8.77096462         1.32077441E-19
   8.85549259         1.69486038E-19
   8.94002151         2.04088450E-19
   9.02454948         2.32914260E-19
   9.10907841         2.52690959E-19
   9.19360638         2.59981703E-19
   9.27813530         2.51365015E-19
   9.36266327         2.23657540E-19
   9.44719219         1.74178052E-19
   9.53172016         1.01047472E-19
   9.61624908         3.51627653E-21
   9.70077705        -1.17694321E-19
   9.78530502        -2.60059691E-19
   9.86983395        -4.18952686E-19
   9.95436192        -5.87411765E-19
   10.0388908        -7.56014749E-19
   10.1234188        -9.12899065E-19
   10.2079477        -1.04396893E-18
   10.2924757        -1.13332667E-18
   10.3770046        -1.16395769E-18
   10.4615326        -1.11867772E-18
   10.5460615        -9.81347640E-19
   10.6305895        -7.38317633E-19
   10.7151184        -3.80061988E-19
   10.7996464         9.70858201E-20
   10.8841753         6.89194479E-19
   10.9687033         1.38311278E-18
   11.0532322         2.15512541E-18
   11.1377602         2.97000522E-18
   11.2222891         3.78065339E-18
   11.3068171         4.52844328E-18
   11.3913460         5.14439009E-18
   11.4758739         5.55127485E-18
   11.5604029         5.66674968E-18
   11.6449308         5.40745255E-18
   11.7294598         4.69412590E-18
   11.8139877         3.45759015E-18
   11.8985167         1.64552611E-18
   11.9830446        -7.70215320E-19
   12.0675735        -3.78601766E-18
   12.1521015        -7.35892216E-18
   12.2366304        -1.13994786E-17
   12.3211584        -1.57655397E-17
   12.4056873        -2.02575043E-17
   12.4902153        -2.46156923E-17
   12.5747442        -2.85205324E-17
   12.6592722        -3.15962910E-17
   12.7438011        -3.34193243E-17
   12.8283291        -3.35314073E-17
   12.9128580        -3.14589923E-17
   12.9973860        -2.67388581E-17
   13.0819149        -1.89505060E-17
   13.1664429        -7.75491420E-18
   13.2509708         7.06084266E-18
   13.3354998         2.55347016E-17
   13.4200277         4.74785591E-17
   13.5045567         7.24283580E-17
   13.5890846         9.95988720E-17
   13.6736135         1.27848744E-16
   13.7581415         1.55660648E-16
   13.8426704         1.81142469E-16
   13.9271984         2.02056070E-16
   14.0117273         2.15877676E-16
   14.0962553         2.19895087E-16
   14.1807842         2.11343085E-16
   14.2653122         1.87577696E-16
   14.3498411         1.46284350E-16
   14.4343691         8.57147249E-17
   14.5188980         4.93960126E-18
   14.6034260        -9.58953528E-17
   14.6879549        -2.15331247E-16
   14.7724829        -3.50394105E-16
   14.8570118        -4.96453475E-16
   14.9415398        -6.47163400E-16
   15.0260687        -7.94508434E-16
   15.1105967        -9.28970044E-16
   15.1951256        -1.03982770E-15
   15.2796535        -1.11559755E-15
   15.3641825        -1.14460420E-15
   15.4487104        -1.11567199E-15
   15.5332394        -1.01890768E-15
   15.6177673        -8.46541721E-16
   15.7022963        -5.93779255E-16
   15.7868242        -2.59610384E-16
   15.8713531         1.52483070E-16
   15.9558811         6.33976103E-16
   16.0404091         1.17097138E-15
   16.1249390         1.74413899E-15
   16.2094669         2.32896812E-15
   16.2939949         2.89636055E-15
   16.3785229         3.41357433E-15
   16.4630527         3.84550798E-15
   16.5475807         4.15631105E-15
   16.6321087         4.31123761E-15
   16.7166367         4.27871112E-15
   16.8011646         4.03247102E-15
   16.8856945         3.55372080E-15
   16.9702225         2.83314225E-15
   17.0547504         1.87264754E-15
   17.1392784         6.86746097E-16
   17.2238083        -6.96607625E-16
   17.3083363        -2.23577819E-15
   17.3928642        -3.87595162E-15
   17.4773922        -5.55039599E-15
   17.5619221        -7.18254547E-15
   17.6464500        -8.68886736E-15
   17.7309780        -9.98246963E-15
   17.8155060        -1.09773208E-14
   17.9000359        -1.15929393E-14
   17.9845638        -1.17593152E-14
   18.0690918        -1.14218615E-14
   18.1536198        -1.05460286E-14
   18.2381496        -9.12137001E-15
   18.3226776        -7.16468748E-15
   18.4072056        -4.72195499E-15
   18.4917336        -1.86881006E-15
   18.5762634         1.29065036E-15
   18.6607914         4.62685014E-15
   18.7453194         7.98955611E-15
   18.8298473         1.12144799E-14
   18.9143772         1.41314132E-14
   18.9989052         1.65736599E-14
   19.0834332         1.83882298E-14
   19.1679611         1.94463823E-14
   19.2524910         1.96538003E-14
   19.3370190         1.89597246E-14
   19.4215469         1.73643940E-14
   19.5060749         1.49241073E-14
   19.5906048         1.17532733E-14
   19.6751328         8.02290973E-15
   19.7596607         3.95547276E-15
   19.8441887        -1.84502186E-16
   19.9287186        -4.10329229E-15
   20.0132465        -7.49453905E-15
   20.0977745        -1.00586365E-14
   20.1823025        -1.15238638E-14
   20.2668324        -1.16685192E-14
   20.3513603        -1.03423053E-14
   20.4358883        -7.48594505E-15
   20.5204163        -3.14732456E-15
   20.6049442         2.50721562E-15
   20.6894741         9.18764864E-15
   20.7740021         1.64821397E-14
   20.8585300         2.38667135E-14
   20.9430580         3.07230166E-14
   21.0275879         3.63637478E-14
   21.1121159         4.00655529E-14
   21.1966438         4.11078676E-14
   21.2811718         3.88161285E-14
   21.3657017         3.26078208E-14
   21.4502296         2.20385115E-14
   21.5347576         6.84632252E-15
   21.6192856        -1.30085880E-14
   21.7038155        -3.73105003E-14
   21.7883434        -6.55642058E-14
   21.8728714        -9.69811660E-14
   21.9573994        -1.30478148E-13
   22.0419292        -1.64688440E-13
   22.1264572        -1.97987731E-13
   22.2109852        -2.28532796E-13
   22.2955132        -2.54314880E-13
   22.3800430        -2.73225182E-13
   22.4645710        -2.83132919E-13
   22.5490990        -2.81973744E-13
   22.6336269        -2.67846726E-13
   22.7181568        -2.39117780E-13
   22.8026848        -1.94526659E-13
   22.8872128        -1.33295054E-13
   22.9717407        -5.52303835E-14
   23.0562706         3.91783841E-14
   23.1407986         1.48676807E-13
   23.2253265         2.71179916E-13
   23.3098545         4.03731112E-13
   23.3943844         5.42491453E-13
   23.4789124         6.82763037E-13
   23.5634403         8.19055110E-13
   23.6479683         9.45192275E-13
   23.7324982         1.05447118E-12
   23.8170261         1.13986370E-12
   23.9015541         1.19426550E-12
   23.9860821         1.21078690E-12
   24.0706100         1.18307436E-12
   24.1551399         1.10565929E-12
   24.2396679         9.74314162E-13
   24.3241959         7.86405067E-13
   24.4087238         5.41223912E-13
   24.4932537         2.40279720E-13
   24.5777817        -1.12470105E-13
   24.6623096        -5.10459188E-13
   24.7468376        -9.44446669E-13
   24.8313675        -1.40256513E-12
   24.9158955        -1.87046559E-12
   25.0004234        -2.33160951E-12
   25.0849514        -2.76766262E-12
   25.1694813        -3.15902491E-12
   25.2540092        -3.48546149E-12
   25.3385372        -3.72683264E-12
   25.4230652        -3.86390095E-12
   25.5075951        -3.87918517E-12
   25.5921230        -3.75783432E-12
   25.6766510        -3.48849422E-12
   25.7611790        -3.06412187E-12
   25.8457088        -2.48271911E-12
   25.9302368        -1.74793741E-12
   26.0147648        -8.69540225E-13
   26.0992928         1.36338559E-13
   26.1838226         1.24713683E-12
   26.2683506         2.43407443E-12
   26.3528786         3.66257979E-12
   26.4374065         4.89302869E-12
   26.5219364         6.08170155E-12
   26.6064644         7.18203795E-12
   26.6909924         8.14608624E-12
   26.7755203         8.92617404E-12
   26.8600502         9.47673624E-12
   26.9445782         9.75622014E-12
   27.0291061         9.72905697E-12
   27.1136341         9.36756662E-12
   27.1981640         8.65377214E-12
   27.2826920         7.58097491E-12
   27.3672199         6.15507992E-12
   27.4517479         4.39552344E-12
   27.5362759         2.33576092E-12
   27.6208057         2.32458350E-14
   27.7053337        -2.48116501E-12
   27.7898617        -5.10437656E-12
   27.8743896        -7.76283465E-12
   27.9589195        -1.03648852E-11
   28.0434475        -1.28136364E-11
   28.1279755        -1.50103020E-11
   28.2125034        -1.68578745E-11
   28.2970333        -1.82650284E-11
   28.3815613        -1.91500791E-11
   28.4660892        -1.94448364E-11
   28.5506172        -1.90982317E-11
   28.6351471        -1.80794494E-11
   28.7196751        -1.63804855E-11
   28.8042030        -1.40179587E-11
   28.8887310        -1.10340296E-11
   28.9732609        -7.49636811E-12
   29.0577888        -3.49713509E-12
   29.1423168         8.49092823E-13
   29.2268448         5.40834565E-12
   29.3113747         1.00312120E-11
   29.3959026         1.45575722E-11
   29.4804306         1.88219492E-11
   29.5649586         2.26593379E-11
   29.6494884         2.59113165E-11
   29.7340164         2.84320761E-11
   29.8185444         3.00943818E-11
   29.9030724         3.07950575E-11
   29.9876022         3.04598742E-11
   30.0721302         2.90476029E-11
   30.1566582         2.65530636E-11
   30.2411861         2.30091033E-11
   30.3257160         1.84872725E-11
   30.4102440         1.30971987E-11
   30.4947720         6.98464463E-12
   30.5792999         3.28179676E-13
   30.6638298        -6.66541041E-12
   30.7483578        -1.37669503E-11
   30.8328857        -2.07316976E-11
   30.9174137        -2.73071444E-11
   31.0019417        -3.32413715E-11
   31.0864716        -3.82919529E-11
   31.1709995        -4.22348823E-11
   31.2555275        -4.48732336E-11
   31.3400555        -4.60455632E-11
   31.4245853        -4.56332784E-11
   31.5091133        -4.35668238E-11
   31.5936413        -3.98306908E-11
   31.6781693        -3.44663777E-11
   31.7626991        -2.75738356E-11
   31.8472271        -1.93104664E-11
   31.9317551        -9.88845117E-12
   32.0162849         4.30409858E-13
   32.1008110         1.13415345E-11
   32.1853409         2.25065192E-11
   32.2698708         3.35634610E-11
   32.3543968         4.41386198E-11
   32.4389267         5.38589902E-11
   32.5234528         6.23652033E-11
   32.6079826         6.93244975E-11
   32.6925125         7.44432363E-11
   32.7770386         7.74782183E-11
   32.8615685         7.82468534E-11
   32.9460983         7.66351982E-11
   33.0306244         7.26043531E-11
   33.1151543         6.61934049E-11
   33.1996803         5.75207972E-11
   33.2842102         4.67821476E-11
   33.3687401         3.42455127E-11
   33.4532661         2.02440096E-11
   33.5377960         5.16576105E-12
   33.6223259        -1.05585913E-11
   33.7068520        -2.64702392E-11
   33.7913818        -4.20976760E-11
   33.8759079        -5.69739325E-11
   33.9604378        -7.06534969E-11
   34.0449677        -8.27299271E-11
   34.1294937        -9.28520039E-11
   34.2140236        -1.00738994E-10
   34.2985535        -1.06193991E-10
   34.3830795        -1.09114502E-10
   34.4676094        -1.09500388E-10
   34.5521355        -1.07457938E-10
   34.6366653        -1.03200615E-10
   34.7211952        -9.70457464E-11
   34.8057213        -8.94064683E-11
   34.8902512        -8.07804448E-11
   34.9747772        -7.17341672E-11
   35.0593071        -6.28826366E-11
   35.1438370        -5.48676729E-11
   35.2283630        -4.83306103E-11
   35.3128929        -4.38858672E-11
   35.3974228        -4.20900051E-11
   35.4819489        -4.34120795E-11
   35.5664787        -4.82019702E-11
   35.6510048        -5.66629174E-11
   35.7355347        -6.88214138E-11
   35.8200645        -8.45036194E-11
   35.9045906        -1.03313531E-10
   35.9891205        -1.24615748E-10
   36.0736504        -1.47523896E-10
   36.1581764        -1.70895520E-10
   36.2427063        -1.93332850E-10
   36.3272324        -2.13192769E-10
   36.4117622        -2.28603983E-10
   36.4962921        -2.37493913E-10
   36.5808182        -2.37625392E-10
   36.6653481        -2.26642802E-10
   36.7498779        -2.02130201E-10
   36.8344040        -1.61679031E-10
   36.9189339        -1.02967739E-10
   37.0034599        -2.38498440E-11
   37.0879898         7.75433259E-11
   37.1725197         2.02693293E-10
   37.2570457         3.52580160E-10
   37.3415756         5.27555277E-10
   37.4261055         7.27216176E-10
   37.5106316         9.50277412E-10
   37.5951614         1.19444643E-09
   37.6796875         1.45630663E-09
   37.7642174         1.73121317E-09
   37.8487473         2.01320716E-09
   37.9332733         2.29495045E-09
   38.0178032         2.56769805E-09
   38.1023293         2.82130297E-09
   38.1868591         3.04426018E-09
   38.2713890         3.22380878E-09
   38.3559151         3.34607742E-09
   38.4404449         3.39629680E-09
   38.5249748         3.35906325E-09
   38.6095009         3.21867022E-09
   38.6940308         2.95949643E-09
   38.7785568         2.56645571E-09
   38.8630867         2.02549200E-09
   38.9476166         1.32412792E-09
   39.0321426         4.52043125E-10
   39.1166725        -5.98324834E-10
   39.2012024        -1.83115967E-09
   39.2857285        -3.24666849E-09
   39.3702583        -4.84049600E-09
   39.4547844        -6.60317623E-09
   39.5393143        -8.51967652E-09
   39.6238441        -1.05689759E-08
   39.7083702        -1.27238087E-08
   39.7929001        -1.49504693E-08
   39.8774300        -1.72088015E-08
   39.9619560        -1.94523277E-08
   40.0464859        -2.16285567E-08
   40.1310120        -2.36794744E-08
   40.2155418        -2.55422190E-08
   40.3000717        -2.71499498E-08
   40.3845978        -2.84329378E-08
   40.4691277        -2.93197893E-08
   40.5536575        -2.97389047E-08
   40.6381836        -2.96200398E-08
   40.7227135        -2.88960713E-08
   40.8072395        -2.75047860E-08
   40.8917694        -2.53908361E-08
   40.9762993        -2.25076473E-08
   41.0608253        -1.88194047E-08
   41.1453552        -1.43029046E-08
   41.2298851        -8.94938967E-09
   41.3144112        -2.76615864E-09
   41.3989410         4.22197655E-09
   41.4834671         1.19714985E-08
   41.5679970         2.04193285E-08
   41.6525269         2.94822957E-08
   41.7370529         3.90569745E-08
   41.8215828         4.90200733E-08
   41.9061089         5.92291443E-08
   41.9906387         6.95238924E-08
   42.0751686         7.97280535E-08
   42.1596947         8.96515076E-08
   42.2442245         9.90933771E-08
   42.3287544         1.07845139E-07
   42.4132805         1.15694633E-07
   42.4978104         1.22430180E-07
   42.5823364         1.27845283E-07
   42.6668663         1.31743661E-07
   42.7513962         1.33944411E-07
   42.8359222         1.34287433E-07
   42.9204521         1.32639016E-07
   43.0049820         1.28897057E-07
   43.0895081         1.22996710E-07
   43.1740379         1.14915188E-07
   43.2585640         1.04676595E-07
   43.3430939         9.23561174E-08
   43.4276237         7.80836373E-08
   43.5121498         6.20466594E-08
   43.5966797         4.44922392E-08
   43.6812096         2.57282320E-08
   43.7657356         6.12334983E-09
   43.8502655        -1.38938718E-08
   43.9347916        -3.38371606E-08
   44.0193214        -5.31658984E-08
   44.1038513        -7.12896338E-08
   44.1883774        -8.75738948E-08
   44.2729073        -1.01347126E-07
   44.3574371        -1.11908776E-07
   44.4419632        -1.18538409E-07
   44.5264931        -1.20505874E-07
   44.6110191        -1.17082287E-07
   44.6955490        -1.07551600E-07
   44.7800789        -9.12228657E-08
   44.8646049        -6.74427909E-08
   44.9491348        -3.56083838E-08
   45.0336647         4.82029883E-09
   45.1181908         5.43078222E-08
   45.2027206         1.13231430E-07
   45.2872467         1.81869936E-07
   45.3717766         2.60393449E-07
   45.4563065         3.48854314E-07
   45.5408325         4.47179417E-07
   45.6253624         5.55163979E-07
   45.7098885         6.72467252E-07
   45.7944183         7.98609733E-07
   45.8789482         9.32973137E-07
   45.9634743         1.07480116E-06
   46.0480042         1.22320307E-06
   46.1325340         1.37716154E-06
   46.2170601         1.53553833E-06
   46.3015900         1.69708449E-06
   46.3861160         1.86045384E-06
   46.4706459         2.02421688E-06
   46.5551758         2.18687410E-06
   46.6397018         2.34687718E-06
   46.7242317         2.50264316E-06
   46.8087616         2.65257631E-06
   46.8932877         2.79509072E-06
   46.9778175         2.92862524E-06
   47.0623436         3.05166805E-06
   47.1468735         3.16277851E-06
   47.2314034         3.26060240E-06
   47.3159294         3.34389506E-06
   47.4004593         3.41153873E-06
   47.4849892         3.46255661E-06
   47.5695152         3.49612947E-06
   47.6540451         3.51160634E-06
   47.7385712         3.50851565E-06
   47.8231010         3.48657159E-06
   47.9076309         3.44568161E-06
   47.9921570         3.38594191E-06
   48.0766869         3.30764237E-06
   48.1612167         3.21125822E-06
   48.2457428         3.09744519E-06
   48.3302727         2.96702910E-06
   48.4147987         2.82098949E-06
   48.4993286         2.66045413E-06
   48.5838585         2.48666720E-06
   48.6683846         2.30098431E-06
   48.7529144         2.10483745E-06
   48.8374405         1.89972559E-06
   48.9219704         1.68718282E-06
   49.0065002         1.46875470E-06
   49.0910263         1.24597796E-06
   49.1755562         1.02035835E-06
   49.2600861         7.93339098E-07
   49.3446121         5.66290566E-07
   49.4291420         3.40481932E-07
   49.5136681         1.17067820E-07
   49.5981979        -1.02928610E-07
   49.6827278        -3.18629333E-07
   49.7672539        -5.29308750E-07
   49.8517838        -7.34404125E-07
   49.9363136        -9.33517470E-07
   50.0208397        -1.12641487E-06
   50.1053696        -1.31302806E-06
   50.1898956        -1.49344055E-06
   50.2744255        -1.66789221E-06
   50.3589554        -1.83675058E-06
   50.4434814        -2.00050954E-06
   50.5280113        -2.15976956E-06
   50.6125412        -2.31521722E-06
   50.6970673        -2.46760715E-06
   50.7815971        -2.61773971E-06
   50.8661232        -2.76644528E-06
   50.9506531        -2.91455149E-06
   51.0351830        -3.06287575E-06
   51.1197090        -3.21219773E-06
   51.2042389        -3.36324183E-06
   51.2887688        -3.51665949E-06
   51.3732948        -3.67301800E-06
   51.4578247        -3.83278211E-06
   51.5423508        -3.99631244E-06
   51.6268806        -4.16385183E-06
   51.7114105        -4.33552168E-06
   51.7959366        -4.51132792E-06
   51.8804665        -4.69115412E-06
   51.9649963        -4.87477382E-06
   52.0495224        -5.06185552E-06
   52.1340523        -5.25196720E-06
   52.2185783        -5.44460181E-06
   52.3031082        -5.63918229E-06
   52.3876381        -5.83507290E-06
   52.4721642        -6.03160925E-06
   52.5566940        -6.22809921E-06
   52.6412201        -6.42385839E-06
   52.7257500        -6.61820650E-06
   52.8102798        -6.81050051E-06
   52.8948059        -7.00013970E-06
   52.9793358        -7.18657793E-06
   53.0638657        -7.36934226E-06
   53.1483917        -7.54802841E-06
   53.2329216        -7.72232033E-06
   53.3174477        -7.89198657E-06
   53.4019775        -8.05687614E-06
   53.4865074        -8.21692356E-06
   53.5710335        -8.37214520E-06
   53.6555634        -8.52262201E-06
   53.7400932        -8.66850132E-06
   53.8246193        -8.80997686E-06
   53.9091492        -8.94728601E-06
   53.9936752        -9.08068250E-06
   54.0782051        -9.21043738E-06
   54.1627350        -9.33681349E-06
   54.2472610        -9.46006367E-06
   54.3317909        -9.58039800E-06
   54.4163208        -9.69800658E-06
   54.5008469        -9.81300855E-06
   54.5853767        -9.92549212E-06
   54.6699028        -1.00354664E-05
   54.7544327        -1.01428905E-05
   54.8389626        -1.02476697E-05
   54.9234886        -1.03496532E-05
   55.0080185        -1.04486489E-05
   55.0925484        -1.05444315E-05
   55.1770744        -1.06367615E-05
   55.2616043        -1.07254000E-05
   55.3461304        -1.08101276E-05
   55.4306602        -1.08907589E-05
   55.5151901        -1.09671746E-05
   55.5997162        -1.10393385E-05
   55.6842461        -1.11073159E-05
   55.7687759        -1.11712934E-05
   55.8533020        -1.12316002E-05
   55.9378319        -1.12887255E-05
   56.0223579        -1.13433216E-05
   56.1068878        -1.13962315E-05
   56.1914177        -1.14484665E-05
   56.2759438        -1.15012281E-05
   56.3604736        -1.15558969E-05
   56.4449997        -1.16140145E-05
   56.5295296        -1.16772717E-05
   56.6140594        -1.17474856E-05
   56.6985855        -1.18265816E-05
   56.7831154        -1.19165443E-05
   56.8676453        -1.20193963E-05
   56.9521713        -1.21371449E-05
   57.0367012        -1.22717502E-05
   57.1212273        -1.24250710E-05
   57.2057571        -1.25988208E-05
   57.2902870        -1.27945177E-05
   57.3748131        -1.30134367E-05
   57.4593430        -1.32565692E-05
   57.5438728        -1.35245746E-05
   57.6283989        -1.38177429E-05
   57.7129288        -1.41359624E-05
   57.7974548        -1.44786909E-05
   57.8819847        -1.48449381E-05
   57.9665146        -1.52332468E-05
   58.0510406        -1.56416900E-05
   58.1355705        -1.60678810E-05
   58.2201004        -1.65089768E-05
   58.3046265        -1.69617088E-05
   58.3891563        -1.74224206E-05
   58.4736824        -1.78870851E-05
   58.5582123        -1.83513766E-05
   58.6427422        -1.88107351E-05
   58.7272682        -1.92604057E-05
   58.8117981        -1.96955207E-05
   58.8963280        -2.01111889E-05
   58.9808540        -2.05025535E-05
   59.0653839        -2.08649017E-05
   59.1499100        -2.11937258E-05
   59.2344398        -2.14848114E-05
   59.3189697        -2.17343331E-05
   59.4034958        -2.19389131E-05
   59.4880257        -2.20957099E-05
   59.5725517        -2.22024828E-05
   59.6570816        -2.22576436E-05
   59.7416115        -2.22603121E-05
   59.8261375        -2.22103572E-05
   59.9106674        -2.21084374E-05
   59.9951973        -2.19559970E-05
   60.0797234        -2.17552915E-05
   60.1642532        -2.15093678E-05
   60.2487793        -2.12220621E-05
   60.3333092        -2.08979509E-05
   60.4178391        -2.05423094E-05
   60.5023651        -2.01610710E-05
   60.5868950        -1.97607424E-05
   60.6714249        -1.93483374E-05
   60.7559509        -1.89312777E-05
   60.8404808        -1.85173158E-05
   60.9250069        -1.81144078E-05
   61.0095367        -1.77306283E-05
   61.0940666        -1.73740464E-05
   61.1785927        -1.70525964E-05
   61.2631226        -1.67739945E-05
   61.3476524        -1.65455822E-05
   61.4321785        -1.63742388E-05
   61.5167084        -1.62662600E-05
   61.6012344        -1.62272445E-05
   61.6857643        -1.62620181E-05
   61.7702942        -1.63745099E-05
   61.8548203        -1.65677011E-05
   61.9393501        -1.68435381E-05
   62.0238800        -1.72028758E-05
   62.1084061        -1.76454487E-05
   62.1929359        -1.81698197E-05
   62.2774620        -1.87733804E-05
   62.3619919        -1.94523527E-05
   62.4465218        -2.02017982E-05
   62.5310478        -2.10156650E-05
   62.6155777        -2.18868354E-05
   62.7001076        -2.28071749E-05
   62.7846336        -2.37676504E-05
   62.8691635        -2.47583976E-05
   62.9536896        -2.57688407E-05
   63.0382195        -2.67878258E-05
   63.1227493        -2.78037460E-05
   63.2072754        -2.88046995E-05
   63.2918053        -2.97786282E-05
   63.3763313        -3.07134906E-05
   63.4608612        -3.15974103E-05
   63.5453911        -3.24188732E-05
   63.6299171        -3.31668380E-05
   63.7144470        -3.38309655E-05
   63.7989769        -3.44017026E-05
   63.8835030        -3.48705071E-05