  -4.50000000         0.00000000    
  -4.41547155         0.00000000    
  -4.33094311         0.00000000    
  -4.24641466         0.00000000    
  -4.16188622         0.00000000    
  -4.07735777         0.00000000    
  -3.99282932         0.00000000    
  -3.90830088         0.00000000    
  -3.82377243         0.00000000    
  -3.73924398         0.00000000    
  -3.65471554         0.00000000    
  -3.57018733         0.00000000    
  -3.48565888         0.00000000    
  -3.40113044         0.00000000    
  -3.31660199         7.56798818E-35
  -3.23207355         7.67333440E-35
  -3.14754510        -6.63111792E-34
  -3.06301665        -3.88341273E-33
  -2.97848821        -1.27672234E-32
  -2.89395976        -3.20955802E-32
  -2.80943131         1.24647860E-30
  -2.72490287         7.68615846E-30
  -2.64037442         2.81518205E-29
  -2.55584598         7.66585419E-29
  -2.47131753         1.67344282E-28
  -2.38678908         3.23742925E-28
  -2.30226064         5.57186651E-28
  -2.21773219         8.33273813E-28
  -2.13320374         1.02920242E-27
  -2.04867530         8.77448868E-28
  -1.96414697        -9.23269209E-29
  -1.87961853        -2.53706238E-27
  -1.79509008        -7.16773193E-27
  -1.71056163        -1.44138477E-26
  -1.62603319        -2.38362334E-26
  -1.54150474        -3.33057043E-26
  -1.45697629        -3.81389226E-26
  -1.37244797        -3.05500468E-26
  -1.28791952         1.22312064E-29
  -1.20339108         6.50091521E-26
  -1.11886263         1.72947412E-25
  -1.03433418         3.23483236E-25
 -0.949805737         5.00262306E-25
 -0.865277290         6.64245189E-25
 -0.780748844         7.50171912E-25
 -0.696220458         6.69301492E-25
 -0.611692011         3.21255345E-25
 -0.527163565        -3.83445441E-25
 -0.442635119        -1.49073155E-24
 -0.358106703        -2.96351297E-24
 -0.273578256        -4.64162680E-24
 -0.189049825        -6.21008936E-24
 -0.104521386        -7.18683839E-24
  -1.99929532E-02    -6.94305828E-24
   6.45354837E-02    -4.77044542E-24
  0.149063915        -9.90055180E-27
  0.233592346         7.74751734E-24
  0.318120778         1.83859385E-23
  0.402649224         3.09358430E-23
  0.487177670         4.32432186E-23
  0.571706116         5.17346089E-23
  0.656234503         5.14252492E-23
  0.740762949         3.63537808E-23
  0.825291395         6.29580570E-25
  0.909819841        -5.97875345E-23
  0.994348288        -1.44602319E-22
   1.07887673        -2.46270485E-22
   1.16340518        -3.47247584E-22
   1.24793363        -4.18330060E-22
   1.33246195        -4.19274144E-22
   1.41699040        -3.02928293E-22
   1.50151885        -2.38364546E-23
   1.58604729         4.48435845E-22
   1.67057574         1.11217422E-21
   1.75510418         1.91502712E-21
   1.83963263         2.73825823E-21
   1.92416108         3.38925745E-21
   2.00868940         3.60849626E-21
   2.09321785         3.09654376E-21
   2.17774630         1.56455003E-21
   2.26227474        -1.19250202E-21
   2.34680319        -5.20621783E-21
   2.43133163        -1.02420494E-20
   2.51586008        -1.57231492E-20
   2.60038853        -2.06953804E-20
   2.68491697        -2.38593026E-20
   2.76944542        -2.36909051E-20
   2.85397387        -1.86625307E-20
   2.93850231        -7.55850017E-21
   3.02303076         1.01424508E-20
   3.10755920         3.38703998E-20
   3.19208765         6.16289817E-20
   3.27661610         8.98127312E-20
   3.36114454         1.13271451E-19
   3.44567299         1.25700266E-19
   3.53020120         1.20397495E-19
   3.61472964         9.13747261E-20
   3.69925809         3.47306773E-20
   3.78378654        -4.98820476E-20
   3.86831498        -1.57941621E-19
   3.95284343        -2.79187028E-19
   4.03737211        -3.97500842E-19
   4.12190056        -4.91805300E-19
   4.20642900        -5.38125398E-19
   4.29095745        -5.12805192E-19
   4.37548542        -3.96650630E-19
   4.46001387        -1.79531009E-19
   4.54454231         1.35235745E-19
   4.62907076         5.27547205E-19
   4.71359921         9.59098549E-19
   4.79812765         1.37465227E-18
   4.88265610         1.70647939E-18
   4.96718454         1.88204600E-18
   5.05171299         1.83443948E-18
   5.13624144         1.51444962E-18
   5.22076988         9.02657845E-19
   5.30529833         1.94893737E-20
   5.38982677        -1.06893986E-18
   5.47435522        -2.25111227E-18
   5.55888367        -3.37786544E-18
   5.64341211        -4.27793452E-18
   5.72794056        -4.78034790E-18
   5.81246901        -4.74136163E-18
   5.89699745        -4.07236401E-18
   5.98152590        -2.76428975E-18
   6.06605434        -9.03741452E-19
   6.15058279         1.32347843E-18
   6.23511124         3.64449367E-18
   6.31963968         5.72804459E-18
   6.40416813         7.22815566E-18
   6.48869658         7.83821542E-18
   6.57322502         7.34842689E-18
   6.65775347         5.69754975E-18
   6.74228191         3.00943486E-18
   6.82681036        -3.94678295E-19
   6.91133881        -4.01445144E-18
   6.99586725        -7.22185668E-18
   7.08039570        -9.34320520E-18
   7.16492414        -9.76399446E-18
   7.24945259        -8.04351668E-18
   7.33398104        -4.02283699E-18
   7.41850948         2.09233744E-18
   7.50303793         9.69104953E-18
   7.58756638         1.77719308E-17
   7.67209482         2.50207246E-17
   7.75662327         2.99483686E-17
   7.84115171         3.10793130E-17
   7.92567968         2.71696902E-17
   8.01020813         1.74292812E-17
   8.09473705         1.71630196E-18
   8.17926502        -1.93247407E-17
   8.26379395        -4.42080293E-17
   8.34832191        -7.06509718E-17
   8.43285084        -9.57229551E-17
   8.51737881        -1.16091014E-16
   8.60190773        -1.28340990E-16
   8.68643570        -1.29342183E-16
   8.77096462        -1.16617789E-16
   8.85549259        -8.86809879E-17
   8.94002151        -4.52988853E-17
   9.02454948         1.23425373E-17
   9.10907841         8.15907001E-17
   9.19360638         1.58400389E-16
   9.27813530         2.37519500E-16
   9.36266327         3.12769933E-16
   9.44719219         3.77398838E-16
   9.53172016         4.24474309E-16
   9.61624908         4.47303912E-16
   9.70077705         4.39859286E-16
   9.78530502         3.97193337E-16
   9.86983395         3.15852657E-16
   9.95436192         1.94275040E-16
   10.0388908         3.31746641E-17
   10.1234188        -1.64097056E-16
   10.2079477        -3.91238642E-16
   10.2924757        -6.38764645E-16
   10.3770046        -8.93898963E-16
   10.4615326        -1.14065332E-15
   10.5460615        -1.36014634E-15
   10.6305895        -1.53122053E-15
   10.7151184        -1.63138906E-15
   10.7996464        -1.63813006E-15
   10.8841753        -1.53050426E-15
   10.9687033        -1.29103925E-15
   11.0532322        -9.07780562E-16
   11.1377602        -3.76381234E-16
   11.2222891         2.97944686E-16
   11.3068171         1.09876955E-15
   11.3913460         1.99730200E-15
   11.4758739         2.95192464E-15
   11.5604029         3.90856831E-15
   11.6449308         4.80204154E-15
   11.7294598         5.55841612E-15
   11.8139877         6.09843859E-15
   11.8985167         6.34193473E-15
   11.9830446         6.21307561E-15
   12.0675735         5.64624370E-15
   12.1521015         4.59225562E-15
   12.2366304         3.02455073E-15
   12.3211584         9.44927615E-16
   12.4056873        -1.61157261E-15
   12.4902153        -4.57316138E-15
   12.5747442        -7.82949314E-15
   12.6592722        -1.12320152E-14
   12.7438011        -1.45966647E-14
   12.8283291        -1.77091465E-14
   12.9128580        -2.03327718E-14
   12.9973860        -2.22187838E-14
   13.0819149        -2.31189037E-14
   13.1664429        -2.27997451E-14
   13.2509708        -2.10585367E-14
   13.3354998        -1.77395635E-14
   13.4200277        -1.27506317E-14
   13.5045567        -6.07866927E-15
   13.5890846         2.19635199E-15
   13.6736135         1.18901318E-14
   13.7581415         2.27064173E-14
   13.8426704         3.42339851E-14
   13.9271984         4.59492741E-14
   14.0117273         5.72255120E-14
   14.0962553         6.73490940E-14
   14.1807842         7.55437650E-14
   14.2653122         8.10026078E-14
   14.3498411         8.29278662E-14
   14.4343691         8.05773091E-14
   14.5188980         7.33159396E-14
   14.6034260         6.06710320E-14
   14.6879549         4.23872905E-14
   14.7724829         1.84792062E-14
   14.8570118        -1.07236760E-14
   14.9415398        -4.45421220E-14
   15.0260687        -8.19276491E-14
   15.1105967        -1.21461841E-13
   15.1951256        -1.61376798E-13
   15.2796535        -1.99599641E-13
   15.3641825        -2.33821317E-13
   15.4487104        -2.61588657E-13
   15.5332394        -2.80417643E-13
   15.6177673        -2.87923331E-13
   15.7022963        -2.81961059E-13
   15.7868242        -2.60771981E-13
   15.8713531        -2.23124606E-13
   15.9558811        -1.68445160E-13
   16.0404091        -9.69280334E-14
   16.1249390        -9.61896629E-15
   16.2094669         9.15350491E-14
   16.2939949         2.03673938E-13
   16.3785229         3.23054544E-13
   16.4630527         4.45122888E-13
   16.5475807         5.64629181E-13
   16.6321087         6.75782889E-13
   16.7166367         7.72444446E-13
   16.8011646         8.48350090E-13
   16.8856945         8.97361775E-13
   16.9702225         9.13737619E-13
   17.0547504         8.92414018E-13
   17.1392784         8.29291497E-13
   17.2238083         7.21514591E-13
   17.3083363         5.67735041E-13
   17.3928642         3.68347551E-13
   17.4773922         1.25684172E-13
   17.5619221        -1.55843261E-13
   17.6464500        -4.69666461E-13
   17.7309780        -8.07062208E-13
   17.8155060        -1.15724249E-12
   17.9000359        -1.50753910E-12
   17.9845638        -1.84369035E-12
   18.0690918        -2.15022856E-12
   18.1536198        -2.41096336E-12
   18.2381496        -2.60955190E-12
   18.3226776        -2.73014467E-12
   18.4072056        -2.75808087E-12
   18.4917336        -2.68061636E-12
   18.5762634        -2.48765570E-12
   18.6607914        -2.17245471E-12
   18.7453194        -1.73227296E-12
   18.8298473        -1.16893214E-12
   18.9143772        -4.89265095E-13
   18.9989052         2.94592069E-13
   19.0834332         1.16506273E-12
   19.1679611         2.09920059E-12
   19.2524910         3.06896067E-12
   19.3370190         4.04170794E-12
   19.4215469         4.98092843E-12
   19.5060749         5.84720163E-12
   19.5906048         6.59936905E-12
   19.6751328         7.19590316E-12
   19.7596607         7.59646686E-12
   19.8441887         7.76357971E-12
   19.9287186         7.66439343E-12
   20.0132465         7.27246258E-12
   20.0977745         6.56950622E-12
   20.1823025         5.54700903E-12
   20.2668324         4.20765419E-12
   20.3513603         2.56645052E-12
   20.4358883         6.51487057E-13
   20.5204163        -1.49572748E-12
   20.6049442        -3.82045307E-12
   20.6894741        -6.25546880E-12
   20.7740021        -8.72238826E-12
   20.8585300        -1.11335758E-11
   20.9430580        -1.33946439E-11
   21.0275879        -1.54074496E-11
   21.1121159        -1.70735683E-11
   21.1966438        -1.82980853E-11
   21.2811718        -1.89936296E-11
   21.3657017        -1.90844337E-11
   21.4502296        -1.85103738E-11
   21.5347576        -1.72307012E-11
   21.6192856        -1.52273350E-11
   21.7038155        -1.25076199E-11
   21.7883434        -9.10625481E-12
   21.8728714        -5.08638834E-12
   21.9573994        -5.39681255E-13
   22.0419292         4.41470731E-12
   22.1264572         9.63226547E-12
   22.2109852         1.49464538E-11
   22.2955132         2.01731739E-11
   22.3800430         2.51162285E-11
   22.4645710         2.95737566E-11
   22.5490990         3.33454341E-11
   22.6336269         3.62402088E-11
   22.7181568         3.80843586E-11
   22.8026848         3.87294710E-11
   22.8872128         3.80602529E-11
   22.9717407         3.60014935E-11
   23.0562706         3.25241743E-11
   23.1407986         2.76502050E-11
   23.2253265         2.14555543E-11
   23.3098545         1.40714775E-11
   23.3943844         5.68376813E-12
   23.4789124        -3.47030803E-12
   23.5634403        -1.31072028E-11
   23.6479683        -2.29044041E-11
   23.7324982        -3.25100329E-11
   23.8170261        -4.15538923E-11
   23.9015541        -4.96603141E-11
   23.9860821        -5.64620330E-11
   24.0706100        -6.16145815E-11
   24.1551399        -6.48111009E-11
   24.2396679        -6.57964377E-11
   24.3241959        -6.43805634E-11
   24.4087238        -6.04503184E-11
   24.4932537        -5.39791233E-11
   24.5777817        -4.50342819E-11
   24.6623096        -3.37810682E-11
   24.7468376        -2.04836790E-11
   24.8313675        -5.50239108E-12
   24.9158955         1.07128334E-11
   25.0004234         2.76327537E-11
   25.0849514         4.46628290E-11
   25.1694813         6.11604101E-11
   25.2540092         7.64555710E-11
   25.3385372         8.98736294E-11
   25.4230652         1.00760261E-10
   25.5075951         1.08506940E-10
   25.5921230         1.12577364E-10
   25.6766510         1.12532150E-10
   25.7611790         1.08052400E-10
   25.8457088         9.89602150E-11
   25.9302368         8.52353951E-11
   26.0147648         6.70274045E-11
   26.0992928         4.46621524E-11
   26.1838226         1.86425476E-11
   26.2683506        -1.03571205E-11
   26.3528786        -4.15038663E-11
   26.4374065        -7.38242315E-11
   26.5219364        -1.06229775E-10
   26.6064644        -1.37547196E-10
   26.6909924        -1.66554187E-10
   26.7755203        -1.92018415E-10
   26.8600502        -2.12739812E-10
   26.9445782        -2.27593666E-10
   27.0291061        -2.35574810E-10
   27.1136341        -2.35839320E-10
   27.1981640        -2.27744948E-10
   27.2826920        -2.10885531E-10
   27.3672199        -1.85121696E-10
   27.4517479        -1.50603446E-10
   27.5362759        -1.07785038E-10
   27.6208057        -5.74312473E-11
   27.7053337        -6.13867952E-13
   27.7898617         6.13031709E-11
   27.8743896         1.26687605E-10
   27.9589195         1.93674257E-10
   28.0434475         2.60209632E-10
   28.1279755         3.24106020E-10
   28.2125034         3.83103133E-10
   28.2970333         4.34937059E-10
   28.3815613         4.77411666E-10
   28.4660892         5.08474707E-10
   28.5506172         5.26292177E-10
   28.6351471         5.29320088E-10
   28.7196751         5.16373388E-10
   28.8042030         4.86682916E-10
   28.8887310         4.39947273E-10
   28.9732609         3.76368492E-10
   29.0577888         2.96676211E-10
   29.1423168         2.02134906E-10
   29.2268448         9.45355669E-11
   29.3113747        -2.38314282E-11
   29.3959026        -1.50218227E-10
   29.4804306        -2.81479284E-10
   29.5649586        -4.14146356E-10
   29.6494884        -5.44516932E-10
   29.7340164        -6.68753886E-10
   29.8185444        -7.82993170E-10
   29.9030724        -8.83458751E-10
   29.9876022        -9.66577707E-10
   30.0721302        -1.02909470E-09
   30.1566582        -1.06818021E-09
   30.2411861        -1.08153098E-09
   30.3257160        -1.06745457E-09
   30.4102440        -1.02494002E-09
   30.4947720        -9.53707779E-10
   30.5792999        -8.54237903E-10
   30.6638298        -7.27772398E-10
   30.7483578        -5.76297288E-10
   30.8328857        -4.02493011E-10
   30.9174137        -2.09665521E-10
   31.0019417        -1.65320470E-12
   31.0864716         2.17283233E-10
   31.1709995         4.42593434E-10
   31.2555275         6.69568345E-10
   31.3400555         8.93492058E-10
   31.4245853         1.10977438E-09
   31.5091133         1.31409339E-09
   31.5936413         1.50251067E-09
   31.6781693         1.67157221E-09
   31.7626991         1.81838689E-09
   31.8472271         1.94066541E-09
   31.9317551         2.03673345E-09
   32.0162849         2.10550799E-09
   32.1008110         2.14643081E-09
   32.1853409         2.15938067E-09
   32.2698708         2.14453899E-09
   32.3543968         2.10224216E-09
   32.4389267         2.03281036E-09
   32.5234528         1.93636329E-09
   32.6079826         1.81264259E-09
   32.6925125         1.66083880E-09
   32.7770386         1.47944923E-09
   32.8615685         1.26616051E-09
   32.9460983         1.01778919E-09
   33.0306244         7.30270899E-10
   33.1151543         3.98720557E-10
   33.1996803         1.75666304E-11
   33.2842102        -4.19230956E-10
   33.3687401        -9.17892096E-10
   33.4532661        -1.48443102E-09
   33.5377960        -2.12421014E-09
   33.6223259        -2.84142887E-09
   33.7068520        -3.63852903E-09
   33.7913818        -4.51560478E-09
   33.8759079        -5.46976686E-09
   33.9604378        -6.49451337E-09
   34.0449677        -7.57915419E-09
   34.1294937        -8.70825367E-09
   34.2140236        -9.86121407E-09
   34.2985535        -1.10119318E-08
   34.3830795        -1.21286154E-08
   34.4676094        -1.31737883E-08
   34.5521355        -1.41044803E-08
   34.6366653        -1.48726196E-08
   34.7211952        -1.54257052E-08
   34.8057213        -1.57076627E-08
   34.8902512        -1.56599977E-08
   34.9747772        -1.52231561E-08
   35.0593071        -1.43381245E-08
   35.1438370        -1.29482443E-08
   35.2283630        -1.10011831E-08
   35.3128929        -8.45108250E-09
   35.3974228        -5.26074562E-09
   35.4819489        -1.40390266E-09
   35.5664787         3.13252779E-09
   35.6510048         8.34630232E-09
   35.7355347         1.42177985E-08
   35.8200645         2.07082351E-08
   35.9045906         2.77581300E-08
   35.9891205         3.52860887E-08
   36.0736504         4.31881055E-08
   36.1581764         5.13371390E-08
   36.2427063         5.95833569E-08
   36.3272324         6.77549465E-08
   36.4117622         7.56593224E-08
   36.4962921         8.30852755E-08
   36.5808182         8.98053969E-08
   36.6653481         9.55793880E-08
   36.7498779         1.00157827E-07
   36.8344040         1.03286688E-07
   36.9189339         1.04712093E-07
   37.0034599         1.04186007E-07
   37.0879898         1.01471947E-07
   37.1725197         9.63512576E-08
   37.2570457         8.86296121E-08
   37.3415756         7.81436000E-08
   37.4261055         6.47674625E-08
   37.5106316         4.84196647E-08
   37.5951614         2.90693531E-08
   37.6796875         6.74235912E-09
   37.7642174        -1.84730879E-08
   37.8487473        -4.64214729E-08
   37.9332733        -7.68756152E-08
   38.0178032        -1.09533417E-07
   38.1023293        -1.44015374E-07
   38.1868591        -1.79863548E-07
   38.2713890        -2.16541409E-07
   38.3559151        -2.53435672E-07
   38.4404449        -2.89858576E-07
   38.5249748        -3.25053350E-07
   38.6095009        -3.58199514E-07
   38.6940308        -3.88421398E-07
   38.7785568        -4.14797455E-07
   38.8630867        -4.36372375E-07
   38.9476166        -4.52169331E-07
   39.0321426        -4.61206071E-07
   39.1166725        -4.62510911E-07
   39.2012024        -4.55141475E-07
   39.2857285        -4.38204353E-07
   39.3702583        -4.10876481E-07
   39.4547844        -3.72427593E-07
   39.5393143        -3.22243181E-07
   39.6238441        -2.59849173E-07
   39.7083702        -1.84936496E-07
   39.7929001        -9.73852394E-08
   39.8774300         2.71019918E-09
   39.9619560         1.15017258E-07
   40.0464859         2.38941993E-07
   40.1310120         3.73607378E-07
   40.2155418         5.17832973E-07
   40.3000717         6.70117231E-07
   40.3845978         8.28621069E-07
   40.4691277         9.91156639E-07
   40.5536575         1.15517662E-06
   40.6381836         1.31776892E-06
   40.7227135         1.47565629E-06
   40.8072395         1.62519689E-06
   40.8917694         1.76239189E-06
   40.9762993         1.88289937E-06
   41.0608253         1.98204907E-06
   41.1453552         2.05486549E-06
   41.2298851         2.09609379E-06
   41.3144112         2.10023404E-06
   41.3989410         2.06157438E-06
   41.4834671         1.97423674E-06
   41.5679970         1.83222062E-06
   41.6525269         1.62945355E-06
   41.7370529         1.35984578E-06
   41.8215828         1.01734713E-06
   41.9061089         5.96006544E-07
   41.9906387         9.00358117E-08
   42.0751686        -5.06127549E-07
   42.1596947        -1.19775507E-06
   42.2442245        -1.98976204E-06
   42.3287544        -2.88664205E-06
   42.4132805        -3.89240631E-06
   42.4978104        -5.01051773E-06
   42.5823364        -6.24383392E-06
   42.6668663        -7.59455497E-06
   42.7513962        -9.06416062E-06
   42.8359222        -1.06533789E-05
   42.9204521        -1.23621312E-05
   43.0049820        -1.41895034E-05
   43.0895081        -1.61337157E-05
   43.1740379        -1.81920859E-05
   43.2585640        -2.03610434E-05
   43.3430939        -2.26360899E-05
   43.4276237        -2.50118210E-05
   43.5121498        -2.74819140E-05
   43.5966797        -3.00391639E-05
   43.6812096        -3.26755180E-05
   43.7657356        -3.53820578E-05
   43.8502655        -3.81490936E-05
   43.9347916        -4.09661916E-05
   44.0193214        -4.38222014E-05
   44.1038513        -4.67053796E-05
   44.1883774        -4.96034227E-05
   44.2729073        -5.25035321E-05
   44.3574371        -5.53925383E-05
   44.4419632        -5.82569046E-05
   44.5264931        -6.10829666E-05
   44.6110191        -6.38568818E-05
   44.6955490        -6.65648040E-05
   44.7800789        -6.91929235E-05
   44.8646049        -7.17277071E-05
   44.9491348        -7.41558106E-05
   45.0336647        -7.64642973E-05
   45.1181908        -7.86407472E-05
   45.2027206        -8.06732642E-05
   45.2872467        -8.25506722E-05
   45.3717766        -8.42625595E-05
   45.4563065        -8.57993073E-05
   45.5408325        -8.71522934E-05
   45.6253624        -8.83137764E-05
   45.7098885        -8.92772005E-05
   45.7944183        -9.00369705E-05
   45.8789482        -9.05887791E-05
   45.9634743        -9.09293813E-05
   46.0480042        -9.10567978E-05
   46.1325340        -9.09702285E-05
   46.2170601        -9.06700952E-05
   46.3015900        -9.01580352E-05
   46.3861160        -8.94368495E-05
   46.4706459        -8.85105328E-05
   46.5551758        -8.73841345E-05
   46.6397018        -8.60638029E-05
   46.7242317        -8.45567338E-05
   46.8087616        -8.28709817E-05
   46.8932877        -8.10155834E-05
   46.9778175        -7.90002814E-05
   47.0623436        -7.68355749E-05
   47.1468735        -7.45326033E-05
   47.2314034        -7.21030374E-05
   47.3159294        -6.95589697E-05
   47.4004593        -6.69128713E-05
   47.4849892        -6.41774313E-05
   47.5695152        -6.13656230E-05
   47.6540451        -5.84903974E-05
   47.7385712        -5.55647384E-05
   47.8231010        -5.26015610E-05
   47.9076309        -4.96136636E-05
   47.9921570        -4.66135680E-05
   48.0766869        -4.36135051E-05
   48.1612167        -4.06254039E-05
   48.2457428        -3.76607313E-05
   48.3302727        -3.47305613E-05
   48.4147987        -3.18453785E-05
   48.4993286        -2.90151947E-05
   48.5838585        -2.62494614E-05
   48.6683846        -2.35569951E-05
   48.7529144        -2.09460122E-05
   48.8374405        -1.84240707E-05
   48.9219704        -1.59981373E-05
   49.0065002        -1.36744793E-05
   49.0910263        -1.14587001E-05
   49.1755562        -9.35574917E-06
   49.2600861        -7.36991433E-06
   49.3446121        -5.50480217E-06
   49.4291420        -3.76340654E-06
   49.5136681        -2.14801616E-06
   49.5981979        -6.60323906E-07
   49.6827278         6.98639553E-07
   49.7672539         1.92848916E-06
   49.8517838         3.02936110E-06
   49.9363136         4.00204408E-06
   50.0208397         4.84790507E-06
   50.1053696         5.56880559E-06
   50.1898956         6.16716943E-06
   50.2744255         6.64588561E-06
   50.3589554         7.00830242E-06
   50.4434814         7.25822838E-06
   50.5280113         7.39983989E-06
   50.6125412         7.43765713E-06
   50.6970673         7.37654955E-06
   50.7815971         7.22163895E-06
   50.8661232         6.97830183E-06
   50.9506531         6.65208427E-06
   51.0351830         6.24867744E-06
   51.1197090         5.77384208E-06
   51.2042389         5.23342669E-06
   51.2887688         4.63321066E-06
   51.3732948         3.97901204E-06
   51.4578247         3.27642283E-06
   51.5423508         2.53097460E-06
   51.6268806         1.74803120E-06
   51.7114105         9.32670275E-07
   51.7959366         8.97882089E-08
   51.8804665        -7.76032266E-07
   51.9649963        -1.66048176E-06
   52.0495224        -2.55955501E-06
   52.1340523        -3.46959132E-06
   52.2185783        -4.38718371E-06
   52.3031082        -5.30933630E-06
   52.3876381        -6.23327696E-06
   52.4721642        -7.15654915E-06
   52.5566940        -8.07700417E-06
   52.6412201        -8.99270162E-06
   52.7257500        -9.90193530E-06
   52.8102798        -1.08032491E-05
   52.8948059        -1.16952378E-05
   52.9793358        -1.25766783E-05
   53.0638657        -1.34463808E-05
   53.1483917        -1.43032776E-05
   53.2329216        -1.51461854E-05
   53.3174477        -1.59739793E-05
   53.4019775        -1.67853887E-05
   53.4865074        -1.75790810E-05
   53.5710335        -1.83536013E-05
   53.6555634        -1.91072322E-05
   53.7400932        -1.98382277E-05
   53.8246193        -2.05445558E-05
   53.9091492        -2.12240266E-05
   53.9936752        -2.18742243E-05
   54.0782051        -2.24925643E-05
   54.1627350        -2.30763071E-05
   54.2472610        -2.36224241E-05
   54.3317909        -2.41278794E-05
   54.4163208        -2.45894298E-05
   54.5008469        -2.50037519E-05
   54.5853767        -2.53675262E-05
   54.6699028        -2.56773037E-05
   54.7544327        -2.59297685E-05
   54.8389626        -2.61215901E-05
   54.9234886        -2.62496378E-05
   55.0080185        -2.63108614E-05
   55.0925484        -2.63024758E-05
   55.1770744        -2.62219564E-05
   55.2616043        -2.60670586E-05
   55.3461304        -2.58359014E-05
   55.4306602        -2.55270170E-05
   55.5151901        -2.51392958E-05
   55.5997162        -2.46721775E-05
   55.6842461        -2.41255148E-05
   55.7687759        -2.34997133E-05
   55.8533020        -2.27956934E-05
   55.9378319        -2.20149013E-05
   56.0223579        -2.11593706E-05
   56.1068878        -2.02316714E-05
   56.1914177        -1.92349380E-05
   56.2759438        -1.81727646E-05
   56.3604736        -1.70493404E-05
   56.4449997        -1.58693238E-05
   56.5295296        -1.46378316E-05
   56.6140594        -1.33603762E-05
   56.6985855        -1.20428995E-05
   56.7831154        -1.06916641E-05
   56.8676453        -9.31322393E-06
   56.9521713        -7.91430557E-06
   57.0367012        -6.50192260E-06
   57.1212273        -5.08312678E-06
   57.2057571        -3.66501490E-06
   57.2902870        -2.25469034E-06
   57.3748131        -8.59174861E-07
   57.4593430         5.14662133E-07
   57.5438728         1.86013767E-06
   57.6283989         3.17088211E-06
   57.7129288         4.44083526E-06
   57.7974548         5.66429662E-06
   57.8819847         6.83602138E-06
   57.9665146         7.95128744E-06
   58.0510406         9.00583836E-06
   58.1355705         9.99610438E-06
   58.2201004         1.09190278E-05
   58.3046265         1.17722366E-05
   58.3891563         1.25540009E-05
   58.4736824         1.32633231E-05
   58.5582123         1.38998212E-05
   58.6427422         1.44638334E-05
   58.7272682         1.49564312E-05
   58.8117981         1.53792844E-05
   58.8963280         1.57347840E-05
   58.9808540         1.60259642E-05
   59.0653839         1.62564065E-05
   59.1499100         1.64303092E-05
   59.2344398         1.65524289E-05
   59.3189697         1.66279715E-05
   59.4034958         1.66626596E-05
   59.4880257         1.66625159E-05
   59.5725517         1.66339833E-05
   59.6570816         1.65837555E-05
   59.7416115         1.65188048E-05
   59.8261375         1.64461835E-05
   59.9106674         1.63731002E-05
   59.9951973         1.63067834E-05
   60.0797234         1.62544166E-05
   60.1642532         1.62230863E-05
   60.2487793         1.62196557E-05
   60.3333092         1.62508222E-05
   60.4178391         1.63229761E-05
   60.5023651         1.64420435E-05
   60.5868950         1.66136015E-05
   60.6714249         1.68426723E-05
   60.7559509         1.71337560E-05
   60.8404808         1.74907273E-05
   60.9250069         1.79167600E-05
   61.0095367         1.84143555E-05
   61.0940666         1.89852362E-05
   61.1785927         1.96303554E-05
   61.2631226         2.03497802E-05
   61.3476524         2.11427432E-05
   61.4321785         2.20077200E-05
   61.5167084         2.29421275E-05
   61.6012344         2.39426772E-05
   61.6857643         2.50051526E-05
   61.7702942         2.61244913E-05
   61.8548203         2.72949092E-05
   61.9393501         2.85097649E-05
   62.0238800         2.97617826E-05
   62.1084061         3.10430332E-05
   62.1929359         3.23449349E-05
   62.2774620         3.36584781E-05
   62.3619919         3.49742295E-05
   62.4465218         3.62823739E-05
   62.5310478         3.75729323E-05
   62.6155777         3.88357585E-05
   62.7001076         4.00606514E-05
   62.7846336         4.12375812E-05
   62.8691635         4.23566271E-05
   62.9536896         4.34081849E-05
   63.0382195         4.43830359E-05
   63.1227493         4.52724635E-05
   63.2072754         4.60683113E-05
   63.2918053         4.67630925E-05
   63.3763313         4.73500186E-05
   63.4608612         4.78231486E-05
   63.5453911         4.81772731E-05
   63.6299171         4.84081866E-05
   63.7144470         4.85125056E-05
   63.7989769         4.84878437E-05
   63.8835030         4.83326912E-05