  -4.50000000         0.00000000    
  -4.41547155         0.00000000    
  -4.33094311         0.00000000    
  -4.24641466         0.00000000    
  -4.16188622         0.00000000    
  -4.07735777         0.00000000    
  -3.99282932         0.00000000    
  -3.90830088         0.00000000    
  -3.82377243         0.00000000    
  -3.73924398         0.00000000    
  -3.65471554         0.00000000    
  -3.57018733         0.00000000    
  -3.48565888         0.00000000    
  -3.40113044         0.00000000    
  -3.31660199        -6.33061277E-35
  -3.23207355        -4.49544029E-34
  -3.14754510        -1.01342472E-33
  -3.06301665        -1.69696311E-33
  -2.97848821        -1.41950889E-33
  -2.89395976         3.31722853E-33
  -2.80943131         1.58176495E-30
  -2.72490287         4.84477834E-30
  -2.64037442         8.10869319E-30
  -2.55584598         8.18089525E-30
  -2.47131753         9.92197128E-30
  -2.38678908         3.25966803E-29
  -2.30226064         1.13343686E-28
  -2.21773219         3.46383893E-28
  -2.13320374         9.20030697E-28
  -2.04867530         2.14413665E-27
  -1.96414697         4.44964890E-27
  -1.87961853         8.28968088E-27
  -1.79509008         1.39059938E-26
  -1.71056163         2.08588505E-26
  -1.62603319         2.73254854E-26
  -1.54150474         2.92342854E-26
  -1.45697629         1.95058739E-26
  -1.37244797        -1.21286640E-26
  -1.28791952        -7.80683561E-26
  -1.20339108        -1.89811113E-25
  -1.11886263        -3.52426863E-25
  -1.03433418        -5.56552955E-25
 -0.949805737        -7.68842919E-25
 -0.865277290        -9.22963315E-25
 -0.780748844        -9.14404667E-25
 -0.696220458        -6.03235229E-25
 -0.611692011         1.70850188E-25
 -0.527163565         1.55749877E-24
 -0.442635119         3.64668269E-24
 -0.358106703         6.40243258E-24
 -0.273578256         9.58406835E-24
 -0.189049825         1.26650506E-23
 -0.104521386         1.47668593E-23
  -1.99929532E-02     1.46343085E-23
   6.45354837E-02     1.06887316E-23
  0.149063915         1.20354585E-24
  0.233592346        -1.53524591E-23
  0.318120778        -3.97719719E-23
  0.402649224        -7.13710671E-23
  0.487177670        -1.07125746E-22
  0.571706116        -1.40846697E-22
  0.656234503        -1.62665252E-22
  0.740762949        -1.59202152E-22
  0.825291395        -1.14839884E-22
  0.909819841        -1.44633024E-23
  0.994348288         1.52166005E-22
   1.07887673         3.84616972E-22
   1.16340518         6.65334981E-22
   1.24793363         9.53922817E-22
   1.33246195         1.18416054E-21
   1.41699040         1.26613543E-21
   1.50151885         1.09578015E-21
   1.58604729         5.73365815E-22
   1.67057574        -3.69051750E-22
   1.75510418        -1.73357124E-21
   1.83963263        -3.42098798E-21
   1.92416108        -5.20212716E-21
   2.00868940        -6.70644194E-21
   2.09321785        -7.43912525E-21
   2.17774630        -6.83634888E-21
   2.26227474        -4.36347547E-21
   2.34680319         3.46951300E-22
   2.43133163         7.33143505E-21
   2.51586008         1.61323177E-20
   2.60038853         2.56728008E-20
   2.68491697         3.42154859E-20
   2.76944542         3.94499979E-20
   2.85397387         3.87454986E-20
   2.93850231         2.95819109E-20
   3.02303076         1.01397698E-20
   3.10755920        -2.00142101E-20
   3.19208765        -5.92552835E-20
   3.27661610        -1.03392090E-19
   3.36114454        -1.45495176E-19
   3.44567299        -1.76231747E-19
   3.53020120        -1.84833960E-19
   3.61472964        -1.60742971E-19
   3.69925809        -9.58459798E-20
   3.78378654         1.29315867E-20
   3.86831498         1.61078031E-19
   3.95284343         3.34526729E-19
   4.03737211         5.08880944E-19
   4.12190056         6.50422921E-19
   4.20642900         7.19349555E-19
   4.29095745         6.75387335E-19
   4.37548542         4.85519916E-19
   4.46001387         1.33050735E-19
   4.54454231        -3.73304206E-19
   4.62907076        -9.92044740E-19
   4.71359921        -1.64524032E-18
   4.79812765        -2.22056822E-18
   4.88265610        -2.58054357E-18
   4.96718454        -2.57958838E-18
   5.05171299        -2.08831941E-18
   5.13624144        -1.02290168E-18
   5.22076988         6.24289700E-19
   5.30529833         2.75784063E-18
   5.38982677         5.16232460E-18
   5.47435522         7.50120549E-18
   5.55888367         9.33664483E-18
   5.64341211         1.01729418E-17
   5.72794056         9.52310209E-18
   5.81246901         6.99381622E-18
   5.89699745         2.37976140E-18
   5.98152590        -4.24591808E-18
   6.06605434        -1.24609267E-17
   6.15058279        -2.14597882E-17
   6.23511124        -3.00716350E-17
   6.31963968        -3.68403514E-17
   6.40416813        -4.01703158E-17
   6.48869658        -3.85311847E-17
   6.57322502        -3.07046532E-17
   6.65775347        -1.60455006E-17
   6.74228191         5.27896079E-18
   6.82681036         3.21114359E-17
   6.91133881         6.22289497E-17
   6.99586725         9.24015470E-17
   7.08039570         1.18605166E-16
   7.16492414         1.36389682E-16
   7.24945259         1.41381260E-16
   7.33398104         1.29875403E-16
   7.41850948         9.94568418E-17
   7.50303793         4.95677328E-17
   7.58756638        -1.80598724E-17
   7.67209482        -9.91862479E-17
   7.75662327        -1.87122469E-16
   7.84115171        -2.73100231E-16
   7.92567968        -3.46951260E-16
   8.01020813        -3.98055325E-16
   8.09473705        -4.16477577E-16
   8.17926502        -3.94181790E-16
   8.26379395        -3.26188470E-16
   8.34832191        -2.11536857E-16
   8.43285084        -5.39251912E-17
   8.51737881         1.38070791E-16
   8.60190773         3.51259110E-16
   8.68643570         5.68578701E-16
   8.77096462         7.70287951E-16
   8.85549259         9.35499080E-16
   8.94002151         1.04392861E-15
   9.02454948         1.07770988E-15
   9.10907841         1.02311034E-15
   9.19360638         8.72011525E-16
   9.27813530         6.23036990E-16
   9.36266327         2.82249933E-16
   9.44719219        -1.36618301E-16
   9.53172016        -6.12410327E-16
   9.61624908        -1.11723614E-15
   9.70077705        -1.61758125E-15
   9.78530502        -2.07579040E-15
   9.86983395        -2.45190161E-15
   9.95436192        -2.70580376E-15
   10.0388908        -2.79969758E-15
   10.1234188        -2.70083020E-15
   10.2079477        -2.38444349E-15
   10.2924757        -1.83681975E-15
   10.3770046        -1.05825194E-15
   10.4615326        -6.56911307E-17
   10.5460615         1.10524755E-15
   10.6305895         2.39928604E-15
   10.7151184         3.74185232E-15
   10.7996464         5.04114750E-15
   10.8841753         6.19213695E-15
   10.9687033         7.08252655E-15
   11.0532322         7.60058672E-15
   11.1377602         7.64443254E-15
   11.2222891         7.13217073E-15
   11.3068171         6.01205012E-15
   11.3913460         4.27168753E-15
   11.4758739         1.94529396E-15
   11.5604029        -8.82047754E-16
   11.6449308        -4.07389475E-15
   11.7294598        -7.44629290E-15
   11.8139877        -1.07761429E-14
   11.8985167        -1.38138876E-14
   11.9830446        -1.62998667E-14
   12.0675735        -1.79832752E-14
   12.1521015        -1.86424328E-14
   12.2366304        -1.81047550E-14
   12.3211584        -1.62647961E-14
   12.4056873        -1.30988055E-14
   12.4902153        -8.67449321E-15
   12.5747442        -3.15482292E-15
   12.6592722         3.20460347E-15
   12.7438011         1.00649334E-14
   12.8283291         1.70198125E-14
   12.9128580         2.36168507E-14
   12.9973860         2.93837152E-14
   13.0819149         3.38574519E-14
   13.1664429         3.66154793E-14
   13.2509708         3.73064989E-14
   13.3354998         3.56795892E-14
   13.4200277         3.16096806E-14
   13.5045567         2.51177642E-14
   13.5890846         1.63842193E-14
   13.6736135         5.75391048E-15
   13.7581415        -6.26807981E-15
   13.8426704        -1.90309499E-14
   13.9271984        -3.17631833E-14
   14.0117273        -4.36080208E-14
   14.0962553        -5.36686005E-14
   14.1807842        -6.10611889E-14
   14.2653122        -6.49744744E-14
   14.3498411        -6.47318638E-14
   14.4343691        -5.98530082E-14
   14.5188980        -5.01106826E-14
   14.6034260        -3.55785144E-14
   14.6879549        -1.66650988E-14
   14.7724829         5.86927594E-15
   14.8570118         3.09168618E-14
   14.9415398         5.70495054E-14
   15.0260687         8.25696594E-14
   15.1105967         1.05584676E-13
   15.1951256         1.24101887E-13
   15.2796535         1.36140963E-13
   15.3641825         1.39858340E-13
   15.4487104         1.33677141E-13
   15.5332394         1.16416398E-13
   15.6177673         8.74113200E-14
   15.7022963         4.66183183E-14
   15.7868242        -5.30267740E-15
   15.8713531        -6.69336412E-14
   15.9558811        -1.36078120E-13
   16.0404091        -2.09777061E-13
   16.1249390        -2.84364790E-13
   16.2094669        -3.55566190E-13
   16.2939949        -4.18634176E-13
   16.3785229        -4.68526314E-13
   16.4630527        -5.00117742E-13
   16.5475807        -5.08445445E-13
   16.6321087        -4.88976210E-13
   16.7166367        -4.37890880E-13
   16.8011646        -3.52374569E-13
   16.8856945        -2.30899203E-13
   16.9702225        -7.34849735E-14
   17.0547504         1.18073100E-13
   17.1392784         3.40030440E-13
   17.2238083         5.86584600E-13
   17.3083363         8.49847590E-13
   17.3928642         1.11990950E-12
   17.4773922         1.38500203E-12
   17.5619221         1.63176872E-12
   17.6464500         1.84563779E-12
   17.7309780         2.01129781E-12
   17.8155060         2.11326247E-12
   17.9000359         2.13651449E-12
   17.9845638         2.06720665E-12
   18.0690918         1.89340644E-12
   18.1536198         1.60584892E-12
   18.2381496         1.19868265E-12
   18.3226776         6.70178594E-13
   18.4072056         2.33663051E-14
   18.4917336        -7.33421407E-13
   18.5762634        -1.58613444E-12
   18.6607914        -2.51474384E-12
   18.7453194        -3.49317537E-12
   18.8298473        -4.48945135E-12
   18.9143772        -5.46608332E-12
   18.9989052        -6.38072451E-12
   19.0834332        -7.18711592E-12
   19.1679611        -7.83631493E-12
   19.2524910        -8.27822706E-12
   19.3370190        -8.46340446E-12
   19.4215469        -8.34510586E-12
   19.5060749        -7.88155305E-12
   19.5906048        -7.03832565E-12
   19.6751328        -5.79081965E-12
   19.7596607        -4.12667730E-12
   19.8441887        -2.04806072E-12
   19.9287186         4.26329978E-13
   20.0132465         3.25962781E-12
   20.0977745         6.39567305E-12
   20.1823025         9.75853513E-12
   20.2668324         1.32527531E-11
   20.3513603         1.67644093E-11
   20.4358883         2.01630813E-11
   20.5204163         2.33047505E-11
   20.6049442         2.60356008E-11
   20.6894741         2.81967123E-11
   20.7740021         2.96295904E-11
   20.8585300         3.01823358E-11
   20.9430580         2.97163578E-11
   21.0275879         2.81133988E-11
   21.1121159         2.52825989E-11
   21.1966438         2.11673422E-11
   21.2811718         1.57516084E-11
   21.3657017         9.06542376E-12
   21.4502296         1.18923241E-12
   21.5347576        -7.74326003E-12
   21.6192856        -1.75439316E-11
   21.7038155        -2.79710786E-11
   21.7883434        -3.87323298E-11
   21.8728714        -4.94898775E-11
   21.9573994        -5.98678260E-11
   22.0419292        -6.94618529E-11
   22.1264572        -7.78507397E-11
   22.2109852        -8.46097498E-11
   22.2955132        -8.93253388E-11
   22.3800430        -9.16109133E-11
   22.4645710        -9.11230327E-11
   22.5490990        -8.75775563E-11
   22.6336269        -8.07652209E-11
   22.7181568        -7.05659559E-11
   22.8026848        -5.69613835E-11
   22.8872128        -4.00449812E-11
   22.9717407        -2.00291901E-11
   23.0562706         2.75071198E-12
   23.1407986         2.78366705E-11
   23.2253265         5.46520260E-11
   23.3098545         8.25098947E-11
   23.3943844         1.10626085E-10
   23.4789124         1.38136197E-10
   23.5634403         1.64116887E-10
   23.6479683         1.87610788E-10
   23.7324982         2.07654643E-10
   23.8170261         2.23310009E-10
   23.9015541         2.33695230E-10
   23.9860821         2.38018494E-10
   24.0706100         2.35610281E-10
   24.1551399         2.25954255E-10
   24.2396679         2.08715448E-10
   24.3241959         1.83764684E-10
   24.4087238         1.51197846E-10
   24.4932537         1.11349430E-10
   24.5777817         6.47992493E-11
   24.6623096         1.23716497E-11
   24.7468376        -4.48727999E-11
   24.8313675        -1.05653715E-10
   24.9158955        -1.68495079E-10
   25.0004234        -2.31756572E-10
   25.0849514        -2.93671892E-10
   25.1694813        -3.52392837E-10
   25.2540092        -4.06037814E-10
   25.3385372        -4.52744064E-10
   25.4230652        -4.90721797E-10
   25.5075951        -5.18308896E-10
   25.5921230        -5.34024436E-10
   25.6766510        -5.36619471E-10
   25.7611790        -5.25124388E-10
   25.8457088        -4.98890040E-10
   25.9302368        -4.57622495E-10
   26.0147648        -4.01409433E-10
   26.0992928        -3.30737909E-10
   26.1838226        -2.46502013E-10
   26.2683506        -1.50000359E-10
   26.3528786        -4.29225232E-11
   26.4374065         7.26750812E-11
   26.5219364         1.94404048E-10
   26.6064644         3.19588855E-10
   26.6909924         4.45321252E-10
   26.7755203         5.68522562E-10
   26.8600502         6.86012802E-10
   26.9445782         7.94585842E-10
   27.0291061         8.91086704E-10
   27.1136341         9.72491643E-10
   27.1981640         1.03598707E-09
   27.2826920         1.07904641E-09
   27.3672199         1.09950127E-09
   27.4517479         1.09560816E-09
   27.5362759         1.06610554E-09
   27.6208057         1.01026076E-09
   27.7053337         9.27908250E-10
   27.7898617         8.19472379E-10
   27.8743896         6.85980162E-10
   27.9589195         5.29058963E-10
   28.0434475         3.50921459E-10
   28.1279755         1.54337057E-10
   28.2125034        -5.74098061E-11
   28.2970333        -2.80572926E-10
   28.3815613        -5.11009013E-10
   28.4660892        -7.44251827E-10
   28.5506172        -9.75595049E-10
   28.6351471        -1.20017996E-09
   28.7196751        -1.41308931E-09
   28.8042030        -1.60944325E-09
   28.8887310        -1.78449522E-09
   28.9732609        -1.93372540E-09
   29.0577888        -2.05293316E-09
   29.1423168        -2.13832241E-09
   29.2268448        -2.18657847E-09
   29.3113747        -2.19494245E-09
   29.3959026        -2.16126828E-09
   29.4804306        -2.08407536E-09
   29.5649586        -1.96258765E-09
   29.6494884        -1.79676340E-09
   29.7340164        -1.58730984E-09
   29.8185444        -1.33569089E-09
   29.9030724        -1.04412001E-09
   29.9876022        -7.15546955E-10
   30.0721302        -3.53630430E-10
   30.1566582         3.72958539E-11
   30.2411861         4.52265503E-10
   30.3257160         8.85729601E-10
   30.4102440         1.33161304E-09
   30.4947720         1.78337511E-09
   30.5792999         2.23407715E-09
   30.6638298         2.67645128E-09
   30.7483578         3.10297521E-09
   30.8328857         3.50594953E-09
   30.9174137         3.87757471E-09
   31.0019417         4.21003854E-09
   31.0864716         4.49559900E-09
   31.1709995         4.72667816E-09
   31.2555275         4.89595608E-09
   31.3400555         4.99647612E-09
   31.4245853         5.02174613E-09
   31.5091133         4.96586017E-09
   31.5936413         4.82361395E-09
   31.6781693         4.59063942E-09
   31.7626991         4.26353131E-09
   31.8472271         3.83998922E-09
   31.9317551         3.31895444E-09
   32.0162849         2.70075184E-09
   32.1008110         1.98721239E-09
   32.1853409         1.18180943E-09
   32.2698708         2.89756052E-10
   32.3543968        -6.81901147E-10
   32.4389267        -1.72421788E-09
   32.5234528        -2.82632273E-09
   32.6079826        -3.97541200E-09
   32.6925125        -5.15679854E-09
   32.7770386        -6.35398756E-09
   32.8615685        -7.54881135E-09
   32.9460983        -8.72160300E-09
   33.0306244        -9.85142101E-09
   33.1151543        -1.09163203E-08
   33.1996803        -1.18936718E-08
   33.2842102        -1.27605029E-08
   33.3687401        -1.34939029E-08
   33.4532661        -1.40714365E-08
   33.5377960        -1.44715671E-08
   33.6223259        -1.46741259E-08
   33.7068520        -1.46607402E-08
   33.7913818        -1.44152699E-08
   33.8759079        -1.39242236E-08
   33.9604378        -1.31771225E-08
   34.0449677        -1.21668249E-08
   34.1294937        -1.08897886E-08
   34.2140236        -9.34627309E-09
   34.2985535        -7.54046159E-09
   34.3830795        -5.48048984E-09
   34.4676094        -3.17842130E-09
   34.5521355        -6.50118348E-10
   34.6366653         2.08494644E-09
   34.7211952         5.00395814E-09
   34.8057213         8.08108158E-09
   34.8902512         1.12878134E-08
   34.9747772         1.45933727E-08
   35.0593071         1.79651156E-08
   35.1438370         2.13688995E-08
   35.2283630         2.47694736E-08
   35.3128929         2.81307848E-08
   35.3974228         3.14162349E-08
   35.4819489         3.45888900E-08
   35.5664787         3.76115601E-08
   35.6510048         4.04468317E-08
   35.7355347         4.30569962E-08
   35.8200645         4.54038549E-08
   35.9045906         4.74485340E-08
   35.9891205         4.91511258E-08
   36.0736504         5.04703941E-08
   36.1581764         5.13633509E-08
   36.2427063         5.17849195E-08
   36.3272324         5.16876852E-08
   36.4117622         5.10215585E-08
   36.4962921         4.97338206E-08
   36.5808182         4.77690669E-08
   36.6653481         4.50695339E-08
   36.7498779         4.15756602E-08
   36.8344040         3.72268758E-08
   36.9189339         3.19626174E-08
   37.0034599         2.57239687E-08
   37.0879898         1.84552977E-08
   37.1725197         1.01064783E-08
   37.2570457         6.35334507E-10
   37.3415756        -9.98943950E-09
   37.4261055        -2.17853557E-08
   37.5106316        -3.47526026E-08
   37.5951614        -4.88705858E-08
   37.6796875        -6.40942659E-08
   37.7642174        -8.03504179E-08
   37.8487473        -9.75341194E-08
   37.9332733        -1.15505095E-07
   38.0178032        -1.34084701E-07
   38.1023293        -1.53052966E-07
   38.1868591        -1.72146542E-07
   38.2713890        -1.91056714E-07
   38.3559151        -2.09429004E-07
   38.4404449        -2.26862568E-07
   38.5249748        -2.42912023E-07
   38.6095009        -2.57088800E-07
   38.6940308        -2.68865080E-07
   38.7785568        -2.77678168E-07
   38.8630867        -2.82936895E-07
   38.9476166        -2.84028602E-07
   39.0321426        -2.80328720E-07
   39.1166725        -2.71210496E-07
   39.2012024        -2.56057632E-07
   39.2857285        -2.34277010E-07
   39.3702583        -2.05313697E-07
   39.4547844        -1.68667171E-07
   39.5393143        -1.23907725E-07
   39.6238441        -7.06955774E-08
   39.7083702        -8.79980711E-09
   39.7929001         6.18822966E-08
   39.8774300         1.41304369E-07
   39.9619560         2.29250588E-07
   40.0464859         3.25314943E-07
   40.1310120         4.28880753E-07
   40.2155418         5.39101279E-07
   40.3000717         6.54880182E-07
   40.3845978         7.74853902E-07
   40.4691277         8.97375401E-07
   40.5536575         1.02050001E-06
   40.6381836         1.14197178E-06
   40.7227135         1.25921667E-06
   40.8072395         1.36933170E-06
   40.8917694         1.46908394E-06
   40.9762993         1.55491045E-06
   41.0608253         1.62292019E-06
   41.1453552         1.66890322E-06
   41.2298851         1.68834174E-06
   41.3144112         1.67642838E-06
   41.3989410         1.62808385E-06
   41.4834671         1.53798612E-06
   41.5679970         1.40060013E-06
   41.6525269         1.21021196E-06
   41.7370529         9.60970397E-07
   41.8215828         6.46929664E-07
   41.9061089         2.62099348E-07
   41.9906387        -1.99504143E-07
   42.0751686        -7.43800399E-07
   42.1596947        -1.37658787E-06
   42.2442245        -2.10348139E-06
   42.3287544        -2.92984873E-06
   42.4132805        -3.86074998E-06
   42.4978104        -4.90086768E-06
   42.5823364        -6.05444666E-06
   42.6668663        -7.32523540E-06
   42.7513962        -8.71640987E-06
   42.8359222        -1.02305385E-05
   42.9204521        -1.18695143E-05
   43.0049820        -1.36345107E-05
   43.0895081        -1.55259422E-05
   43.1740379        -1.75434052E-05
   43.2585640        -1.96856945E-05
   43.3430939        -2.19507365E-05
   43.4276237        -2.43355917E-05
   43.5121498        -2.68364656E-05
   43.5966797        -2.94486708E-05
   43.6812096        -3.21667176E-05
   43.7657356        -3.49842448E-05
   43.8502655        -3.78941077E-05
   43.9347916        -4.08884225E-05
   44.0193214        -4.39585638E-05
   44.1038513        -4.70952837E-05
   44.1883774        -5.02887597E-05
   44.2729073        -5.35286308E-05
   44.3574371        -5.68041323E-05
   44.4419632        -6.01040956E-05
   44.5264931        -6.34171593E-05
   44.6110191        -6.67317508E-05
   44.6955490        -7.00362289E-05
   44.7800789        -7.33189154E-05
   44.8646049        -7.65683290E-05
   44.9491348        -7.97730972E-05
   45.0336647        -8.29221462E-05
   45.1181908        -8.60048094E-05
   45.2027206        -8.90107985E-05
   45.2872467        -9.19303711E-05
   45.3717766        -9.47544395E-05
   45.4563065        -9.74744180E-05
   45.5408325        -1.00082580E-04
   45.6253624        -1.02571765E-04
   45.7098885        -1.04935782E-04
   45.7944183        -1.07169071E-04
   45.8789482        -1.09267072E-04
   45.9634743        -1.11225912E-04
   46.0480042        -1.13042661E-04
   46.1325340        -1.14715192E-04
   46.2170601        -1.16242227E-04
   46.3015900        -1.17623254E-04
   46.3861160        -1.18858559E-04
   46.4706459        -1.19949240E-04
   46.5551758        -1.20897021E-04
   46.6397018        -1.21704339E-04
   46.7242317        -1.22374317E-04
   46.8087616        -1.22910511E-04
   46.8932877        -1.23317208E-04
   46.9778175        -1.23599006E-04
   47.0623436        -1.23761041E-04
   47.1468735        -1.23808801E-04
   47.2314034        -1.23748090E-04
   47.3159294        -1.23584978E-04
   47.4004593        -1.23325794E-04
   47.4849892        -1.22976955E-04
   47.5695152        -1.22545171E-04
   47.6540451        -1.22037090E-04
   47.7385712        -1.21459423E-04
   47.8231010        -1.20818921E-04
   47.9076309        -1.20122313E-04
   47.9921570        -1.19376236E-04
   48.0766869        -1.18587159E-04
   48.1612167        -1.17761556E-04
   48.2457428        -1.16905663E-04
   48.3302727        -1.16025556E-04
   48.4147987        -1.15127099E-04
   48.4993286        -1.14215938E-04
   48.5838585        -1.13297545E-04
   48.6683846        -1.12377093E-04
   48.7529144        -1.11459522E-04
   48.8374405        -1.10549459E-04
   48.9219704        -1.09651359E-04
   49.0065002        -1.08769316E-04
   49.0910263        -1.07907188E-04
   49.1755562        -1.07068568E-04
   49.2600861        -1.06256717E-04
   49.3446121        -1.05474646E-04
   49.4291420        -1.04725150E-04
   49.5136681        -1.04010644E-04
   49.5981979        -1.03333383E-04
   49.6827278        -1.02695310E-04
   49.7672539        -1.02098100E-04
   49.8517838        -1.01543235E-04
   49.9363136        -1.01031917E-04
   50.0208397        -1.00565150E-04
   50.1053696        -1.00143669E-04
   50.1898956        -9.97680618E-05
   50.2744255        -9.94386501E-05
   50.3589554        -9.91556008E-05
   50.4434814        -9.89188993E-05
   50.5280113        -9.87283347E-05
   50.6125412        -9.85835068E-05
   50.6970673        -9.84839426E-05
   50.7815971        -9.84289363E-05
   50.8661232        -9.84176950E-05
   50.9506531        -9.84492872E-05
   51.0351830        -9.85226361E-05
   51.1197090        -9.86366213E-05
   51.2042389        -9.87899693E-05
   51.2887688        -9.89813780E-05
   51.3732948        -9.92093992E-05
   51.4578247        -9.94726142E-05
   51.5423508        -9.97694879E-05
   51.6268806        -1.00098448E-04
   51.7114105        -1.00457990E-04
   51.7959366        -1.00846468E-04
   51.8804665        -1.01262332E-04
   51.9649963        -1.01703976E-04
   52.0495224        -1.02169892E-04
   52.1340523        -1.02658574E-04
   52.2185783        -1.03168524E-04
   52.3031082        -1.03698396E-04
   52.3876381        -1.04246777E-04
   52.4721642        -1.04812440E-04
   52.5566940        -1.05394181E-04
   52.6412201        -1.05990875E-04
   52.7257500        -1.06601503E-04
   52.8102798        -1.07225133E-04
   52.8948059        -1.07860869E-04
   52.9793358        -1.08507971E-04
   53.0638657        -1.09165696E-04
   53.1483917        -1.09833403E-04
   53.2329216        -1.10510511E-04
   53.3174477        -1.11196525E-04
   53.4019775        -1.11890855E-04
   53.4865074        -1.12593079E-04
   53.5710335        -1.13302718E-04
   53.6555634        -1.14019211E-04
   53.7400932        -1.14742128E-04
   53.8246193        -1.15470844E-04
   53.9091492        -1.16204770E-04
   53.9936752        -1.16943229E-04
   54.0782051        -1.17685420E-04
   54.1627350        -1.18430522E-04
   54.2472610        -1.19177472E-04
   54.3317909        -1.19925251E-04
   54.4163208        -1.20672616E-04
   54.5008469        -1.21418219E-04
   54.5853767        -1.22160651E-04
   54.6699028        -1.22898287E-04
   54.7544327        -1.23629492E-04
   54.8389626        -1.24352388E-04
   54.9234886        -1.25065140E-04
   55.0080185        -1.25765742E-04
   55.0925484        -1.26452127E-04
   55.1770744        -1.27122228E-04
   55.2616043        -1.27773877E-04
   55.3461304        -1.28404892E-04
   55.4306602        -1.29013148E-04
   55.5151901        -1.29596418E-04
   55.5997162        -1.30152679E-04
   55.6842461        -1.30679793E-04
   55.7687759        -1.31175781E-04
   55.8533020        -1.31638764E-04
   55.9378319        -1.32066867E-04
   56.0223579        -1.32458445E-04
   56.1068878        -1.32811896E-04
   56.1914177        -1.33125781E-04
   56.2759438        -1.33398760E-04
   56.3604736        -1.33629714E-04
   56.4449997        -1.33817593E-04
   56.5295296        -1.33961585E-04
   56.6140594        -1.34060901E-04
   56.6985855        -1.34115035E-04
   56.7831154        -1.34123620E-04
   56.8676453        -1.34086455E-04
   56.9521713        -1.34003378E-04
   57.0367012        -1.33874608E-04
   57.1212273        -1.33700407E-04
   57.2057571        -1.33481255E-04
   57.2902870        -1.33217865E-04
   57.3748131        -1.32911053E-04
   57.4593430        -1.32561923E-04
   57.5438728        -1.32171815E-04
   57.6283989        -1.31742258E-04
   57.7129288        -1.31275025E-04
   57.7974548        -1.30772169E-04
   57.8819847        -1.30236032E-04
   57.9665146        -1.29669192E-04
   58.0510406        -1.29074586E-04
   58.1355705        -1.28455315E-04
   58.2201004        -1.27814958E-04
   58.3046265        -1.27157269E-04
   58.3891563        -1.26486266E-04
   58.4736824        -1.25806371E-04
   58.5582123        -1.25122111E-04
   58.6427422        -1.24438360E-04
   58.7272682        -1.23760139E-04
   58.8117981        -1.23092628E-04
   58.8963280        -1.22441168E-04
   58.9808540        -1.21811107E-04
   59.0653839        -1.21207835E-04
   59.1499100        -1.20636672E-04
   59.2344398        -1.20102843E-04
   59.3189697        -1.19611359E-04
   59.4034958        -1.19166951E-04
   59.4880257        -1.18774049E-04
   59.5725517        -1.18436597E-04
   59.6570816        -1.18158147E-04
   59.7416115        -1.17941563E-04
   59.8261375        -1.17789197E-04
   59.9106674        -1.17702650E-04
   59.9951973        -1.17682815E-04
   60.0797234        -1.17729738E-04
   60.1642532        -1.17842676E-04
   60.2487793        -1.18020071E-04
   60.3333092        -1.18259428E-04
   60.4178391        -1.18557451E-04
   60.5023651        -1.18909942E-04
   60.5868950        -1.19311924E-04
   60.6714249        -1.19757598E-04
   60.7559509        -1.20240416E-04
   60.8404808        -1.20753182E-04
   60.9250069        -1.21288009E-04
   61.0095367        -1.21836601E-04
   61.0940666        -1.22390134E-04
   61.1785927        -1.22939542E-04
   61.2631226        -1.23475431E-04
   61.3476524        -1.23988386E-04
   61.4321785        -1.24468963E-04
   61.5167084        -1.24907820E-04
   61.6012344        -1.25295861E-04
   61.6857643        -1.25624370E-04
   61.7702942        -1.25885068E-04
   61.8548203        -1.26070299E-04
   61.9393501        -1.26173007E-04
   62.0238800        -1.26186991E-04
   62.1084061        -1.26106883E-04
   62.1929359        -1.25928229E-04
   62.2774620        -1.25647624E-04
   62.3619919        -1.25262726E-04
   62.4465218        -1.24772268E-04
   62.5310478        -1.24176207E-04
   62.6155777        -1.23475635E-04
   62.7001076        -1.22672805E-04
   62.7846336        -1.21771292E-04
   62.8691635        -1.20775760E-04
   62.9536896        -1.19692071E-04
   63.0382195        -1.18527292E-04
   63.1227493        -1.17289528E-04
   63.2072754        -1.15988034E-04
   63.2918053        -1.14633032E-04
   63.3763313        -1.13235728E-04
   63.4608612        -1.11808222E-04
   63.5453911        -1.10363355E-04
   63.6299171        -1.08914828E-04
   63.7144470        -1.07476837E-04
   63.7989769        -1.06064239E-04
   63.8835030        -1.04692226E-04