  -4.50000000         0.00000000    
  -4.41547155         0.00000000    
  -4.33094311         0.00000000    
  -4.24641466         0.00000000    
  -4.16188622         0.00000000    
  -4.07735777         0.00000000    
  -3.99282932         0.00000000    
  -3.90830088         0.00000000    
  -3.82377243         0.00000000    
  -3.73924398         0.00000000    
  -3.65471554         0.00000000    
  -3.57018733         0.00000000    
  -3.48565888         0.00000000    
  -3.40113044         0.00000000    
  -3.31660199        -4.08530291E-35
  -3.23207355        -1.74419944E-34
  -3.14754510        -2.66410665E-34
  -3.06301665         6.47702668E-35
  -2.97848821         1.13093081E-33
  -2.89395976         3.00139413E-33
  -2.80943131         4.65276350E-33
  -2.72490287        -1.19374009E-30
  -2.64037442        -3.51834562E-30
  -2.55584598        -8.61694460E-30
  -2.47131753        -1.76931468E-29
  -2.38678908        -2.01549171E-29
  -2.30226064         4.55710609E-30
  -2.21773219         1.09046960E-28
  -2.13320374         3.83443432E-28
  -2.04867530         9.48771446E-28
  -1.96414697         1.92314505E-27
  -1.87961853         3.30676124E-27
  -1.79509008         4.75004197E-27
  -1.71056163         5.21546798E-27
  -1.62603319         2.54006086E-27
  -1.54150474        -6.98374322E-27
  -1.45697629        -2.87317409E-26
  -1.37244797        -6.91512326E-26
  -1.28791952        -1.33862288E-25
  -1.20339108        -2.23848822E-25
  -1.11886263        -3.29357662E-25
  -1.03433418        -4.21778929E-25
 -0.949805737        -4.44981251E-25
 -0.865277290        -3.09309625E-25
 -0.780748844         1.06560946E-25
 -0.696220458         9.39152022E-25
 -0.611692011         2.30221975E-24
 -0.527163565         4.22310099E-24
 -0.442635119         6.55577688E-24
 -0.358106703         8.88399374E-24
 -0.273578256         1.04419688E-23
 -0.189049825         1.00945726E-23
 -0.104521386         6.42798457E-24
  -1.99929532E-02    -2.00111943E-24
   6.45354837E-02    -1.62313354E-23
  0.149063915        -3.62952252E-23
  0.233592346        -6.05346552E-23
  0.318120778        -8.49940323E-23
  0.402649224        -1.03123823E-22
  0.487177670        -1.06065025E-22
  0.571706116        -8.37626204E-23
  0.656234503        -2.70475382E-23
  0.740762949         6.93780952E-23
  0.825291395         2.03406257E-22
  0.909819841         3.62123683E-22
  0.994348288         5.19534654E-22
   1.07887673         6.36566827E-22
   1.16340518         6.64474580E-22
   1.24793363         5.52379540E-22
   1.33246195         2.58969959E-22
   1.41699040        -2.32675168E-22
   1.50151885        -8.99424419E-22
   1.58604729        -1.66510347E-21
   1.67057574        -2.39455277E-21
   1.75510418        -2.89930945E-21
   1.83963263        -2.95858857E-21
   1.92416108        -2.35717616E-21
   2.00868940        -9.38467909E-22
   2.09321785         1.33338849E-21
   2.17774630         4.31284944E-21
   2.26227474         7.62840017E-21
   2.34680319         1.06707010E-20
   2.43133163         1.26292490E-20
   2.51586008         1.25886146E-20
   2.60038853         9.68634152E-21
   2.68491697         3.32178871E-21
   2.76944542        -6.60982216E-21
   2.85397387        -1.94987295E-20
   2.93850231        -3.38693173E-20
   3.02303076        -4.73524679E-20
   3.10755920        -5.68315926E-20
   3.19208765        -5.87940011E-20
   3.27661610        -4.98875794E-20
   3.36114454        -2.76411546E-20
   3.44567299         8.73927303E-21
   3.53020120         5.76311208E-20
   3.61472964         1.14474882E-19
   3.69925809         1.71644540E-19
   3.78378654         2.18857489E-19
   3.86831498         2.44214788E-19
   3.95284343         2.35869156E-19
   4.03737211         1.84200017E-19
   4.12190056         8.42442095E-20
   4.20642900        -6.19874869E-20
   4.29095745        -2.43764104E-19
   4.37548542        -4.40933537E-19
   4.46001387        -6.24690314E-19
   4.54454231        -7.60081221E-19
   4.62907076        -8.10288395E-19
   4.71359921        -7.42423189E-19
   4.79812765        -5.34236563E-19
   4.88265610        -1.80837321E-19
   4.96718454         2.99718865E-19
   5.05171299         8.63200037E-19
   5.13624144         1.43946952E-18
   5.22076988         1.93709052E-18
   5.30529833         2.25259107E-18
   5.38982677         2.28402476E-18
   5.47435522         1.94769043E-18
   5.55888367         1.19611433E-18
   5.64341211         3.47407198E-20
   5.72794056        -1.46555890E-18
   5.81246901        -3.16306484E-18
   5.89699745        -4.84930250E-18
   5.98152590        -6.26416268E-18
   6.06605434        -7.12217976E-18
   6.15058279        -7.14850313E-18
   6.23511124        -6.12128418E-18
   6.31963968        -3.91563810E-18
   6.40416813        -5.43169442E-19
   6.48869658         3.81955197E-18
   6.57322502         8.81973056E-18
   6.65775347         1.39392755E-17
   6.74228191         1.85305299E-17
   6.82681036         2.18764986E-17
   6.91133881         2.32717025E-17
   6.99586725         2.21163330E-17
   7.08039570         1.80132376E-17
   7.16492414         1.08553741E-17
   7.24945259         8.90579354E-19
   7.33398104        -1.12484222E-17
   7.41850948        -2.45577516E-17
   7.50303793        -3.77245479E-17
   7.58756638        -4.92363146E-17
   7.67209482        -5.75300278E-17
   7.75662327        -6.11671873E-17
   7.84115171        -5.90164978E-17
   7.92567968        -5.04225677E-17
   8.01020813        -3.53384197E-17
   8.09473705        -1.44026041E-17
   8.17926502         1.10539950E-17
   8.26379395         3.90781132E-17
   8.34832191         6.72390768E-17
   8.43285084         9.28375573E-17
   8.51737881         1.13157858E-16
   8.60190773         1.25739023E-16
   8.68643570         1.28634182E-16
   8.77096462         1.20630396E-16
   8.85549259         1.01403754E-16
   8.94002151         7.15922372E-17
   9.02454948         3.27773924E-17
   9.10907841        -1.26219390E-17
   9.19360638        -6.15344356E-17
   9.27813530        -1.10478077E-16
   9.36266327        -1.55835560E-16
   9.44719219        -1.94137344E-16
   9.53172016        -2.22325952E-16
   9.61624908        -2.37984230E-16
   9.70077705        -2.39510742E-16
   9.78530502        -2.26233977E-16
   9.86983395        -1.98465656E-16
   9.95436192        -1.57490371E-16
   10.0388908        -1.05495829E-16
   10.1234188        -4.54442805E-17
   10.2079477         1.91137699E-17
   10.2924757         8.42877258E-17
   10.3770046         1.46155231E-16
   10.4615326         2.01126531E-16
   10.5460615         2.46356224E-16
   10.6305895         2.80168906E-16
   10.7151184         3.02463131E-16
   10.7996464         3.15027991E-16
   10.8841753         3.21700308E-16
   10.9687033         3.28281780E-16
   11.0532322         3.42137863E-16
   11.1377602         3.71426330E-16
   11.2222891         4.23933823E-16
   11.3068171         5.05556167E-16
   11.3913460         6.18522146E-16
   11.4758739         7.59528144E-16
   11.5604029         9.18018543E-16
   11.6449308         1.07490281E-15
   11.7294598         1.20200074E-15
   11.8139877         1.26254094E-15
   11.8985167         1.21291804E-15
   11.9830446         1.00587333E-15
   12.0675735         5.95083897E-16
   12.1521015        -5.90065584E-17
   12.2366304        -9.82507503E-16
   12.3211584        -2.18104525E-15
   12.4056873        -3.63313310E-15
   12.4902153        -5.28469150E-15
   12.5747442        -7.04558067E-15
   12.6592722        -8.78890703E-15
   12.7438011        -1.03537225E-14
   12.8283291        -1.15515363E-14
   12.9128580        -1.21767017E-14
   12.9973860        -1.20203987E-14
   13.0819149        -1.08877327E-14
   13.1664429        -8.61667305E-15
   13.2509708        -5.09797240E-15
   13.3354998        -2.94171287E-16
   13.4200277         5.74359447E-15
   13.5045567         1.28627272E-14
   13.5890846         2.08016537E-14
   13.6736135         2.91887926E-14
   13.7581415         3.75489536E-14
   13.8426704         4.53175637E-14
   13.9271984         5.18626889E-14
   14.0117273         5.65143296E-14
   14.0962553         5.86001991E-14
   14.1807842         5.74864998E-14
   14.2653122         5.26219388E-14
   14.3498411         4.35832400E-14
   14.4343691         3.01195599E-14
   14.5188980         1.21936915E-14
   14.6034260        -9.98272374E-15
   14.6879549        -3.59221354E-14
   14.7724829        -6.48451426E-14
   14.8570118        -9.56774265E-14
   14.9415398        -1.27062084E-13
   15.0260687        -1.57388249E-13
   15.1105967        -1.84838147E-13
   15.1951256        -2.07451040E-13
   15.2796535        -2.23205406E-13
   15.3641825        -2.30115785E-13
   15.4487104        -2.26342287E-13
   15.5332394        -2.10308821E-13
   15.6177673        -1.80823171E-13
   15.7022963        -1.37195444E-13
   15.7868242        -7.93450185E-14
   15.8713531        -7.89059302E-15
   15.9558811         7.57845460E-14
   16.0404091         1.69498584E-13
   16.1249390         2.70273739E-13
   16.2094669         3.74379997E-13
   16.2939949         4.77420946E-13
   16.3785229         5.74462027E-13
   16.4630527         6.60198404E-13
   16.5475807         7.29158108E-13
   16.6321087         7.75931077E-13
   16.7166367         7.95418635E-13
   16.8011646         7.83090118E-13
   16.8856945         7.35237554E-13
   16.9702225         6.49217550E-13
   17.0547504         5.23668511E-13
   17.1392784         3.58694763E-13
   17.2238083         1.56007707E-13
   17.3083363        -8.09797650E-14
   17.3928642        -3.47116352E-13
   17.4773922        -6.35531016E-13
   17.5619221        -9.37714533E-13
   17.6464500        -1.24366272E-12
   17.7309780        -1.54208298E-12
   17.8155060        -1.82066146E-12
   17.9000359        -2.06639003E-12
   17.9845638        -2.26595153E-12
   18.0690918        -2.40615470E-12
   18.1536198        -2.47441477E-12
   18.2381496        -2.45926586E-12
   18.3226776        -2.35090376E-12
   18.4072056        -2.14173189E-12
   18.4917336        -1.82689519E-12
   18.5762634        -1.40479045E-12
   18.6607914        -8.77517948E-13
   18.7453194        -2.51254475E-13
   18.8298473         4.63475341E-13
   18.9143772         1.25165622E-12
   18.9989052         2.09379519E-12
   19.0834332         2.96609959E-12
   19.1679611         3.84084084E-12
   19.2524910         4.68691535E-12
   19.3370190         5.47059186E-12
   19.4215469         6.15645208E-12
   19.5060749         6.70849314E-12
   19.5906048         7.09139084E-12
   19.6751328         7.27185196E-12
   19.7596607         7.22007914E-12
   19.8441887         6.91121422E-12
   19.9287186         6.32680713E-12
   20.0132465         5.45616720E-12
   20.0977745         4.29759960E-12
   20.1823025         2.85942515E-12
   20.2668324         1.16076213E-12
   20.3513603        -7.68012336E-13
   20.4358883        -2.88515978E-12
   20.5204163        -5.13787450E-12
   20.6049442        -7.46301285E-12
   20.6894741        -9.78827262E-12
   20.7740021        -1.20338357E-11
   20.8585300        -1.41144414E-11
   20.9430580        -1.59418954E-11
   21.0275879        -1.74279167E-11
   21.1121159        -1.84872950E-11
   21.1966438        -1.90412339E-11
   21.2811718        -1.90208231E-11
   21.3657017        -1.83704215E-11
   21.4502296        -1.70509509E-11
   21.5347576        -1.50428021E-11
   21.6192856        -1.23483376E-11
   21.7038155        -8.99381090E-12
   21.7883434        -5.03052417E-12
   21.8728714        -5.35200953E-13
   21.9573994         4.39054392E-12
   22.0419292         9.62170447E-12
   22.1264572         1.50123594E-11
   22.2109852         2.03991078E-11
   22.2955132         2.56053234E-11
   22.3800430         3.04463121E-11
   22.4645710         3.47351141E-11
   22.5490990         3.82886570E-11
   22.6336269         4.09344329E-11
   22.7181568         4.25170871E-11
   22.8026848         4.29049296E-11
   22.8872128         4.19960663E-11
   22.9717407         3.97238006E-11
   23.0562706         3.60612928E-11
   23.1407986         3.10250332E-11
   23.2253265         2.46770764E-11
   23.3098545         1.71258476E-11
   23.3943844         8.52531153E-12
   23.4789124        -9.27360944E-13
   23.5634403        -1.09958214E-11
   23.6479683        -2.14101549E-11
   23.7324982        -3.18738889E-11
   23.8170261        -4.20722936E-11
   23.9015541        -5.16818359E-11
   23.9860821        -6.03801106E-11
   24.0706100        -6.78564635E-11
   24.1551399        -7.38224482E-11
   24.2396679        -7.80220541E-11
   24.3241959        -8.02412234E-11
   24.4087238        -8.03160802E-11
   24.4932537        -7.81402165E-11
   24.5777817        -7.36697023E-11
   24.6623096        -6.69268321E-11
   24.7468376        -5.80014474E-11
   24.8313675        -4.70502942E-11
   24.9158955        -3.42943764E-11
   25.0004234        -2.00143183E-11
   25.0849514        -4.54383840E-12
   25.1694813         1.17384115E-11
   25.2540092         2.84182695E-11
   25.3385372         4.50568229E-11
   25.4230652         6.12019393E-11
   25.5075951         7.64002542E-11
   25.5921230         9.02096939E-11
   25.6766510         1.02211774E-10
   25.7611790         1.12023911E-10
   25.8457088         1.19310645E-10
   25.9302368         1.23794794E-10
   26.0147648         1.25266769E-10
   26.0992928         1.23593025E-10
   26.1838226         1.18722712E-10
   26.2683506         1.10692129E-10
   26.3528786         9.96271607E-11
   26.4374065         8.57433985E-11
   26.5219364         6.93431770E-11
   26.6064644         5.08101408E-11
   26.6909924         3.06009766E-11
   26.7755203         9.23406230E-12
   26.8600502        -1.27244977E-11
   26.9445782        -3.46768309E-11
   27.0291061        -5.60118410E-11
   27.1136341        -7.61245927E-11
   27.1981640        -9.44369652E-11
   27.2826920        -1.10418126E-10
   27.3672199        -1.23604280E-10
   27.4517479        -1.33617256E-10
   27.5362759        -1.40179965E-10
   27.6208057        -1.43129827E-10
   27.7053337        -1.42427431E-10
   27.7898617        -1.38161357E-10
   27.8743896        -1.30548614E-10
   27.9589195        -1.19928956E-10
   28.0434475        -1.06754980E-10
   28.1279755        -9.15773429E-11
   28.2125034        -7.50244519E-11
   28.2970333        -5.77790940E-11
   28.3815613        -4.05506878E-11
   28.4660892        -2.40455208E-11
   28.5506172        -8.93547996E-12
   28.6351471         4.17418053E-12
   28.7196751         1.47748983E-11
   28.8042030         2.24845195E-11
   28.8887310         2.70711908E-11
   28.9732609         2.84744502E-11
   29.0577888         2.68185196E-11
   29.1423168         2.24195922E-11
   29.2268448         1.57838985E-11
   29.3113747         7.59758749E-12
   29.3959026        -1.29244651E-12
   29.4804306        -9.90779681E-12
   29.5649586        -1.71749143E-11
   29.6494884        -2.19711523E-11
   29.7340164        -2.31761849E-11
   29.8185444        -1.97290153E-11
   29.9030724        -1.06876114E-11
   29.9876022         4.71037315E-12
   30.0721302         2.69896553E-11
   30.1566582         5.63830614E-11
   30.2411861         9.27860150E-11
   30.3257160         1.35720032E-10
   30.4102440         1.84310206E-10
   30.4947720         2.37276226E-10
   30.5792999         2.92941199E-10
   30.6638298         3.49257012E-10
   30.7483578         4.03849176E-10
   30.8328857         4.54079219E-10
   30.9174137         4.97123620E-10
   31.0019417         5.30068545E-10
   31.0864716         5.50018586E-10
   31.1709995         5.54212565E-10
   31.2555275         5.40149703E-10
   31.3400555         5.05712194E-10
   31.4245853         4.49290216E-10
   31.5091133         3.69895031E-10
   31.5936413         2.67262268E-10
   31.6781693         1.41936699E-10
   31.7626991        -4.66624959E-12
   31.8472271        -1.70222808E-10
   31.9317551        -3.51494278E-10
   32.0162849        -5.44352619E-10
   32.1008110        -7.43839990E-10
   32.1853409        -9.44261336E-10
   32.2698708        -1.13931342E-09
   32.3543968        -1.32224420E-09
   32.4389267        -1.48604185E-09
   32.5234528        -1.62364766E-09
   32.6079826        -1.72818881E-09
   32.6925125        -1.79322179E-09
   32.7770386        -1.81298199E-09
   32.8615685        -1.78262538E-09
   32.9460983        -1.69846270E-09
   33.0306244        -1.55816449E-09
   33.1151543        -1.36094058E-09
   33.1996803        -1.10767462E-09
   33.2842102        -8.01014421E-10
   33.3687401        -4.45407877E-10
   33.4532661        -4.70818870E-11
   33.5377960         3.86044113E-10
   33.6223259         8.44499026E-10
   33.7068520         1.31746458E-09
   33.7913818         1.79302939E-09
   33.8759079         2.25849761E-09
   33.9604378         2.70073053E-09
   34.0449677         3.10651704E-09
   34.1294937         3.46296147E-09
   34.2140236         3.75787179E-09
   34.2985535         3.98013711E-09
   34.3830795         4.12008028E-09
   34.4676094         4.16976942E-09
   34.5521355         4.12328705E-09
   34.6366653         3.97692679E-09
   34.7211952         3.72933906E-09
   34.8057213         3.38159278E-09
   34.8902512         2.93716629E-09
   34.9747772         2.40186560E-09
   35.0593071         1.78367143E-09
   35.1438370         1.09252429E-09
   35.2283630         3.40056011E-10
   35.3128929        -4.60721794E-10
   35.3974228        -1.29576405E-09
   35.4819489        -2.15035212E-09
   35.5664787        -3.00945513E-09
   35.6510048        -3.85808097E-09
   35.7355347        -4.68159422E-09
   35.8200645        -5.46601564E-09
   35.9045906        -6.19824370E-09
   35.9891205        -6.86624624E-09
   36.0736504        -7.45917283E-09
   36.1581764        -7.96740185E-09
   36.2427063        -8.38253467E-09
   36.3272324        -8.69732109E-09
   36.4117622        -8.90552254E-09
   36.4962921        -9.00175934E-09
   36.5808182        -8.98130370E-09
   36.6653481        -8.83987017E-09
   36.7498779        -8.57340243E-09
   36.8344040        -8.17790369E-09
   36.9189339        -7.64928298E-09
   37.0034599        -6.98325664E-09
   37.0879898        -6.17536067E-09
   37.1725197        -5.22100896E-09
   37.2570457        -4.11565226E-09
   37.3415756        -2.85505863E-09
   37.4261055        -1.43571022E-09
   37.5106316         1.44783352E-10
   37.5951614         1.88707805E-09
   37.6796875         3.78949006E-09
   37.7642174         5.84730042E-09
   37.8487473         8.05202571E-09
   37.9332733         1.03907176E-08
   38.0178032         1.28452653E-08
   38.1023293         1.53917412E-08
   38.1868591         1.79998683E-08
   38.2713890         2.06326192E-08
   38.3559151         2.32459261E-08
   38.4404449         2.57886050E-08
   38.5249748         2.82025248E-08
   38.6095009         3.04229104E-08
   38.6940308         3.23789813E-08
   38.7785568         3.39947874E-08
   38.8630867         3.51903608E-08
   38.9476166         3.58829872E-08
   39.0321426         3.59888439E-08
   39.1166725         3.54247760E-08
   39.2012024         3.41102755E-08
   39.2857285         3.19696447E-08
   39.3702583         2.89341777E-08
   39.4547844         2.49445531E-08
   39.5393143         1.99531573E-08
   39.6238441         1.39264094E-08
   39.7083702         6.84712331E-09
   39.7929001        -1.28340982E-09
   39.8774300        -1.04432623E-08
   39.9619560        -2.05880148E-08
   40.0464859        -3.16490585E-08
   40.1310120        -4.35322001E-08
   40.2155418        -5.61163276E-08
   40.3000717        -6.92525930E-08
   40.3845978        -8.27636200E-08
   40.4691277        -9.64431806E-08
   40.5536575        -1.10056099E-07
   40.6381836        -1.23338225E-07
   40.7227135        -1.35997084E-07
   40.8072395        -1.47712498E-07
   40.8917694        -1.58137340E-07
   40.9762993        -1.66898985E-07
   41.0608253        -1.73600540E-07
   41.1453552        -1.77822542E-07
   41.2298851        -1.79124854E-07
   41.3144112        -1.77048676E-07
   41.3989410        -1.71118899E-07
   41.4834671        -1.60846611E-07
   41.5679970        -1.45731988E-07
   41.6525269        -1.25266752E-07
   41.7370529        -9.89379814E-08
   41.8215828        -6.62310455E-08
   41.9061089        -2.66332982E-08
   41.9906387         2.03617390E-08
   42.0751686         7.52509308E-08
   42.1596947         1.38516683E-07
   42.2442245         2.10622659E-07
   42.3287544         2.92009418E-07
   42.4132805         3.83089315E-07
   42.4978104         4.84241866E-07
   42.5823364         5.95808501E-07
   42.6668663         7.18088131E-07
   42.7513962         8.51332175E-07
   42.8359222         9.95739811E-07
   42.9204521         1.15145315E-06
   43.0049820         1.31855393E-06
   43.0895081         1.49705897E-06
   43.1740379         1.68691759E-06
   43.2585640         1.88800743E-06
   43.3430939         2.10013422E-06
   43.4276237         2.32302955E-06
   43.5121498         2.55634791E-06
   43.5966797         2.79967185E-06
   43.6812096         3.05250637E-06
   43.7657356         3.31428760E-06
   43.8502655         3.58437910E-06
   43.9347916         3.86207921E-06
   44.0193214         4.14662190E-06
   44.1038513         4.43718727E-06
   44.1883774         4.73290038E-06
   44.2729073         5.03284218E-06
   44.3574371         5.33605271E-06
   44.4419632         5.64154334E-06
   44.5264931         5.94829908E-06
   44.6110191         6.25529037E-06
   44.6955490         6.56147722E-06
   44.7800789         6.86581961E-06
   44.8646049         7.16728755E-06
   44.9491348         7.46486057E-06
   45.0336647         7.75754506E-06
   45.1181908         8.04437332E-06
   45.2027206         8.32441401E-06
   45.2872467         8.59677766E-06
   45.3717766         8.86062207E-06
   45.4563065         9.11515417E-06
   45.5408325         9.35963908E-06
   45.6253624         9.59339650E-06
   45.7098885         9.81581434E-06
   45.7944183         1.00263414E-05
   45.8789482         1.02244949E-05
   45.9634743         1.04098544E-05
   46.0480042         1.05820809E-05
   46.1325340         1.07408887E-05
   46.2170601         1.08860731E-05
   46.3015900         1.10174960E-05
   46.3861160         1.11350810E-05
   46.4706459         1.12388307E-05
   46.5551758         1.13288052E-05
   46.6397018         1.14051318E-05
   46.7242317         1.14680015E-05
   46.8087616         1.15176608E-05
   46.8932877         1.15544235E-05
   46.9778175         1.15786488E-05
   47.0623436         1.15907569E-05
   47.1468735         1.15912062E-05
   47.2314034         1.15805087E-05
   47.3159294         1.15592275E-05
   47.4004593         1.15279299E-05
   47.4849892         1.14872537E-05
   47.5695152         1.14378472E-05
   47.6540451         1.13803853E-05
   47.7385712         1.13155538E-05
   47.8231010         1.12440575E-05
   47.9076309         1.11666104E-05
   47.9921570         1.10839237E-05
   48.0766869         1.09967059E-05
   48.1612167         1.09056646E-05
   48.2457428         1.08114591E-05
   48.3302727         1.07147835E-05
   48.4147987         1.06162579E-05
   48.4993286         1.05165127E-05
   48.5838585         1.04161190E-05
   48.6683846         1.03156308E-05
   48.7529144         1.02155591E-05
   48.8374405         1.01163741E-05
   48.9219704         1.00185034E-05
   49.0065002         9.92234254E-06
   49.0910263         9.82824349E-06
   49.1755562         9.73650185E-06
   49.2600861         9.64740957E-06
   49.3446121         9.56118856E-06
   49.4291420         9.47803801E-06
   49.5136681         9.39813526E-06
   49.5981979         9.32160583E-06
   49.6827278         9.24855249E-06
   49.7672539         9.17906527E-06
   49.8517838         9.11320785E-06
   49.9363136         9.05101570E-06
   50.0208397         8.99251336E-06
   50.1053696         8.93770175E-06
   50.1898956         8.88659542E-06
   50.2744255         8.83916618E-06
   50.3589554         8.79538948E-06
   50.4434814         8.75524893E-06
   50.5280113         8.71867815E-06
   50.6125412         8.68564894E-06
   50.6970673         8.65609491E-06
   50.7815971         8.62995421E-06
   50.8661232         8.60716773E-06
   50.9506531         8.58763906E-06
   51.0351830         8.57129089E-06
   51.1197090         8.55803592E-06
   51.2042389         8.54775863E-06
   51.2887688         8.54034715E-06
   51.3732948         8.53570145E-06
   51.4578247         8.53367237E-06
   51.5423508         8.53415804E-06
   51.6268806         8.53702386E-06
   51.7114105         8.54213886E-06
   51.7959366         8.54938480E-06
   51.8804665         8.55865528E-06
   51.9649963         8.56985389E-06
   52.0495224         8.58289241E-06
   52.1340523         8.59770262E-06
   52.2185783         8.61425542E-06
   52.3031082         8.63252080E-06
   52.3876381         8.65252878E-06
   52.4721642         8.67432573E-06
   52.5566940         8.69799987E-06
   52.6412201         8.72365035E-06
   52.7257500         8.75145088E-06
   52.8102798         8.78157607E-06
   52.8948059         8.81425058E-06
   52.9793358         8.84969450E-06
   53.0638657         8.88819613E-06
   53.1483917         8.93002471E-06
   53.2329216         8.97548489E-06
   53.3174477         9.02483953E-06
   53.4019775         9.07838239E-06
   53.4865074         9.13636632E-06
   53.5710335         9.19901595E-06
   53.6555634         9.26651865E-06
   53.7400932         9.33901174E-06
   53.8246193         9.41654343E-06
   53.9091492         9.49913556E-06
   53.9936752         9.58667351E-06
   54.0782051         9.67898723E-06
   54.1627350         9.77581931E-06
   54.2472610         9.87677959E-06
   54.3317909         9.98138148E-06
   54.4163208         1.00890547E-05
   54.5008469         1.01990991E-05
   54.5853767         1.03107513E-05
   54.6699028         1.04231058E-05
   54.7544327         1.05352092E-05
   54.8389626         1.06460393E-05
   54.9234886         1.07544975E-05
   55.0080185         1.08594340E-05
   55.0925484         1.09597158E-05
   55.1770744         1.10541423E-05
   55.2616043         1.11415711E-05
   55.3461304         1.12208709E-05
   55.4306602         1.12909693E-05
   55.5151901         1.13508786E-05
   55.5997162         1.13996821E-05
   55.6842461         1.14366030E-05
   55.7687759         1.14609829E-05
   55.8533020         1.14723071E-05
   55.9378319         1.14702470E-05
   56.0223579         1.14546410E-05
   56.1068878         1.14254890E-05
   56.1914177         1.13830265E-05
   56.2759438         1.13276465E-05
   56.3604736         1.12599446E-05
   56.4449997         1.11807249E-05
   56.5295296         1.10909596E-05
   56.6140594         1.09917937E-05
   56.6985855         1.08845270E-05
   56.7831154         1.07706210E-05
   56.8676453         1.06516254E-05
   56.9521713         1.05292229E-05
   57.0367012         1.04051587E-05
   57.1212273         1.02812346E-05
   57.2057571         1.01592404E-05
   57.2902870         1.00410061E-05
   57.3748131         9.92832429E-06
   57.4593430         9.82288202E-06
   57.5438728         9.72635371E-06
   57.6283989         9.64021456E-06
   57.7129288         9.56586337E-06
   57.7974548         9.50454523E-06
   57.8819847         9.45728243E-06
   57.9665146         9.42492534E-06
   58.0510406         9.40813243E-06
   58.1355705         9.40732934E-06
   58.2201004         9.42269253E-06
   58.3046265         9.45420015E-06
   58.3891563         9.50160120E-06
   58.4736824         9.56439999E-06
   58.5582123         9.64190076E-06
   58.6427422         9.73319220E-06
   58.7272682         9.83717473E-06
   58.8117981         9.95255959E-06
   58.8963280         1.00779334E-05
   58.9808540         1.02117056E-05
   59.0653839         1.03522034E-05
   59.1499100         1.04976552E-05
   59.2344398         1.06462139E-05
   59.3189697         1.07960122E-05
   59.4034958         1.09451839E-05
   59.4880257         1.10918527E-05
   59.5725517         1.12341950E-05
   59.6570816         1.13704609E-05
   59.7416115         1.14989643E-05
   59.8261375         1.16181536E-05
   59.9106674         1.17265672E-05
   59.9951973         1.18228982E-05
   60.0797234         1.19060005E-05
   60.1642532         1.19748747E-05
   60.2487793         1.20287050E-05
   60.3333092         1.20668446E-05
   60.4178391         1.20888217E-05
   60.5023651         1.20943378E-05
   60.5868950         1.20832983E-05
   60.6714249         1.20557515E-05
   60.7559509         1.20119130E-05
   60.8404808         1.19521728E-05
   60.9250069         1.18770722E-05
   61.0095367         1.17872851E-05
   61.0940666         1.16835781E-05
   61.1785927         1.15668799E-05
   61.2631226         1.14381983E-05
   61.3476524         1.12986081E-05
   61.4321785         1.11492791E-05
   61.5167084         1.09914172E-05
   61.6012344         1.08262839E-05
   61.6857643         1.06552070E-05
   61.7702942         1.04794608E-05
   61.8548203         1.03003904E-05
   61.9393501         1.01193182E-05
   62.0238800         9.93754475E-06
   62.1084061         9.75635976E-06
   62.1929359         9.57703742E-06
   62.2774620         9.40080554E-06
   62.3619919         9.22886738E-06
   62.4465218         9.06238711E-06
   62.5310478         8.90242973E-06
   62.6155777         8.75005026E-06
   62.7001076         8.60628279E-06
   62.7846336         8.47204046E-06
   62.8691635         8.34822913E-06
   62.9536896         8.23566188E-06
   63.0382195         8.13512543E-06
   63.1227493         8.04731735E-06
   63.2072754         7.97288430E-06
   63.2918053         7.91243019E-06
   63.3763313         7.86643432E-06
   63.4608612         7.83537598E-06
   63.5453911         7.81962262E-06
   63.6299171         7.81946892E-06
   63.7144470         7.83514679E-06
   63.7989769         7.86678356E-06
   63.8835030         7.91444290E-06