  -4.50000000         0.00000000    
  -4.41547155         0.00000000    
  -4.33094311         0.00000000    
  -4.24641466         0.00000000    
  -4.16188622        -4.18922020E-25
  -4.07735777         4.56311217E-25
  -3.99282932        -1.14454354E-23
  -3.90830088        -2.18340770E-22
  -3.82377243        -1.45169773E-21
  -3.73924398        -6.05371889E-21
  -3.65471554        -1.86192475E-20
  -3.57018733        -4.53003104E-20
  -3.48565888        -8.99034109E-20
  -3.40113044        -1.45768533E-19
  -3.31660199        -1.84734298E-19
  -3.23207355        -1.47525207E-19
  -3.14754510         5.83331064E-20
  -3.06301665         5.48376492E-19
  -2.97848821         1.43870294E-18
  -2.89395976         2.81546783E-18
  -2.80943131         4.69982559E-18
  -2.72490287         7.00171910E-18
  -2.64037442         9.43991998E-18
  -2.55584598         1.13962518E-17
  -2.47131753         1.16884045E-17
  -2.38678908         8.30318439E-18
  -2.30226064        -1.77307715E-18
  -2.21773219        -2.23906856E-17
  -2.13320374        -5.74598366E-17
  -2.04867530        -1.09360755E-16
  -1.96414697        -1.76581250E-16
  -1.87961853        -2.50995609E-16
  -1.79509008        -3.15597806E-16
  -1.71056163        -3.43760328E-16
  -1.62603319        -3.01049221E-16
  -1.54150474        -1.50210864E-16
  -1.45697629         1.40772336E-16
  -1.37244797         5.88433894E-16
  -1.28791952         1.18283556E-15
  -1.20339108         1.87743603E-15
  -1.11886263         2.58118955E-15
  -1.03433418         3.15399007E-15
 -0.949805737         3.40683766E-15
 -0.865277290         3.10935228E-15
 -0.780748844         2.00933897E-15
 -0.696220458        -1.28736422E-16
 -0.611692011        -3.45921246E-15
 -0.527163565        -7.96117204E-15
 -0.442635119        -1.33208687E-14
 -0.358106703        -1.88120342E-14
 -0.273578256        -2.32138375E-14
 -0.189049825        -2.48221294E-14
 -0.104521386        -2.16145004E-14
  -1.99929532E-02    -1.16149113E-14
   6.45354837E-02     6.53544576E-15
  0.149063915         3.28583731E-14
  0.233592346         6.53048443E-14
  0.318120778         9.92153679E-14
  0.402649224         1.27225094E-13
  0.487177670         1.39850262E-13
  0.571706116         1.26901582E-13
  0.656234503         7.97014296E-14
  0.740762949        -6.14813994E-15
  0.825291395        -1.27944652E-13
  0.909819841        -2.73708790E-13
  0.994348288        -4.21432230E-13
   1.07887673        -5.40434342E-13
   1.16340518        -5.95215771E-13
   1.24793363        -5.51702943E-13
   1.33246195        -3.85167403E-13
   1.41699040        -8.84950750E-14
   1.50151885         3.20980438E-13
   1.58604729         7.98021588E-13
   1.67057574         1.27107905E-12
   1.75510418         1.64988899E-12
   1.83963263         1.83890663E-12
   1.92416108         1.75508317E-12
   2.00868940         1.34719124E-12
   2.09321785         6.12970070E-13
   2.17774630        -3.89939925E-13
   2.26227474        -1.54277903E-12
   2.34680319        -2.67626719E-12
   2.43133163        -3.59301911E-12
   2.51586008        -4.09931897E-12
   2.60038853        -4.04142214E-12
   2.68491697        -3.33990366E-12
   2.76944542        -2.01499646E-12
   2.85397387        -1.96682853E-13
   2.93850231         1.88439368E-12
   3.02303076         3.92580933E-12
   3.10755920         5.59873719E-12
   3.19208765         6.60288534E-12
   3.27661610         6.72150920E-12
   3.36114454         5.86604463E-12
   3.44567299         4.10116342E-12
   3.53020120         1.64410130E-12
   3.61472964        -1.16322783E-12
   3.69925809        -3.90563536E-12
   3.78378654        -6.16113584E-12
   3.86831498        -7.57078081E-12
   3.95284343        -7.89920213E-12
   4.03737211        -7.07475788E-12
   4.12190056        -5.20216032E-12
   4.20642900        -2.54586109E-12
   4.29095745         5.11677560E-13
   4.37548542         3.52791559E-12
   4.46001387         6.06268031E-12
   4.54454231         7.73349006E-12
   4.62907076         8.25498003E-12
   4.71359921         7.45849476E-12
   4.79812765         5.29363879E-12
   4.88265610         1.81863454E-12
   4.96718454        -2.81110877E-12
   5.05171299        -8.34704788E-12
   5.13624144        -1.44390524E-11
   5.22076988        -2.06155874E-11
   5.30529833        -2.62612900E-11
   5.38982677        -3.06068504E-11
   5.47435522        -3.27493067E-11
   5.55888367        -3.17188463E-11
   5.64341211        -2.66007633E-11
   5.72794056        -1.67088652E-11
   5.81246901        -1.79167391E-12
   5.89699745         1.77623038E-11
   5.98152590         4.07640866E-11
   6.06605434         6.51565191E-11
   6.15058279         8.80801543E-11
   6.23511124         1.06097763E-10
   6.31963968         1.15576944E-10
   6.40416813         1.13200657E-10
   6.48869658         9.65446889E-11
   6.57322502         6.46386694E-11
   6.65775347         1.84134999E-11
   6.74228191        -3.90578264E-11
   6.82681036        -1.02599526E-10
   6.91133881        -1.65289865E-10
   6.99586725        -2.19127771E-10
   7.08039570        -2.55949567E-10
   7.16492414        -2.68492256E-10
   7.24945259        -2.51464377E-10
   7.33398104        -2.02471290E-10
   7.41850948        -1.22650751E-10
   7.50303793        -1.69031612E-11
   7.58756638         1.06346945E-10
   7.67209482         2.35861608E-10
   7.75662327         3.58709284E-10
   7.84115171         4.61672617E-10
   7.92567968         5.32779321E-10
   8.01020813         5.62769553E-10
   8.09473705         5.46317713E-10
   8.17926502         4.82852425E-10
   8.26379395         3.76866760E-10
   8.34832191         2.37673103E-10
   8.43285084         7.86199300E-11
   8.51737881        -8.41490211E-11
   8.60190773        -2.33263409E-10
   8.68643570        -3.51861346E-10
   8.77096462        -4.25313118E-10
   8.85549259        -4.42768017E-10
   8.94002151        -3.98378108E-10
   9.02454948        -2.92091018E-10
   9.10907841        -1.29952368E-10
   9.19360638         7.61028046E-11
   9.27813530         3.08936765E-10
   9.36266327         5.47311307E-10
   9.44719219         7.67313213E-10
   9.53172016         9.43989664E-10
   9.61624908         1.05308273E-09
   9.70077705         1.07274101E-09
   9.78530502         9.85111992E-10
   9.86983395         7.77716946E-10
   9.95436192         4.44537046E-10
   10.0388908        -1.32504936E-11
   10.1234188        -5.86937499E-10
   10.2079477        -1.26038624E-09
   10.2924757        -2.01059969E-09
   10.3770046        -2.80878654E-09
   10.4615326        -3.62193586E-09
   10.5460615        -4.41489911E-09
   10.6305895        -5.15296872E-09
   10.7151184        -5.80488457E-09
   10.7996464        -6.34618669E-09
   10.8841753        -6.76276102E-09
   10.9687033        -7.05439263E-09
   11.0532322        -7.23805460E-09
   11.1377602        -7.35069872E-09
   11.2222891        -7.45120232E-09
   11.3068171        -7.62123786E-09
   11.3913460        -7.96475863E-09
   11.4758739        -8.60596661E-09
   11.5604029        -9.68563274E-09
   11.6449308        -1.13557608E-08
   11.7294598        -1.37727199E-08
   11.8139877        -1.70889898E-08
   11.8985167        -2.14438369E-08
   11.9830446        -2.69531846E-08
   12.0675735        -3.36990880E-08
   12.1521015        -4.17191366E-08
   12.2366304        -5.09962170E-08
   12.3211584        -6.14488869E-08
   12.4056873        -7.29229868E-08
   12.4902153        -8.51845243E-08
   12.5747442        -9.79146648E-08
   12.6592722        -1.10707006E-07
   12.7438011        -1.23067977E-07
   12.8283291        -1.34420503E-07
   12.9128580        -1.44112377E-07
   12.9973860        -1.51429248E-07
   13.0819149        -1.55613535E-07
   13.1664429        -1.55889708E-07
   13.2509708        -1.51496252E-07
   13.3354998        -1.41725749E-07
   13.4200277        -1.25971980E-07
   13.5045567        -1.03785354E-07
   13.5890846        -7.49353291E-08
   13.6736135        -3.94804367E-08
   13.7581415         2.15611906E-09
   13.8426704         4.91057506E-08
   13.9271984         9.99708831E-08
   14.0117273         1.52739645E-07
   14.0962553         2.04701820E-07
   14.1807842         2.52368068E-07
   14.2653122         2.91395367E-07
   14.3498411         3.16521124E-07
   14.4343691         3.21507969E-07
   14.5188980         2.99103647E-07
   14.6034260         2.41015869E-07
   14.6879549         1.37905644E-07
   14.7724829        -2.05990585E-08
   14.8570118        -2.45868847E-07
   14.9415398        -5.50217464E-07
   15.0260687        -9.46820364E-07
   15.1105967        -1.44961462E-06
   15.1951256        -2.07317339E-06
   15.2796535        -2.83255690E-06
   15.3641825        -3.74314482E-06
   15.4487104        -4.82044561E-06
   15.5332394        -6.07988886E-06
   15.6177673        -7.53660197E-06
   15.7022963        -9.20516868E-06
   15.7868242        -1.10993878E-05
   15.8713531        -1.32320201E-05
   15.9558811        -1.56145325E-05
   16.0404091        -1.82568565E-05
   16.1249390        -2.11671522E-05
   16.2094669        -2.43515860E-05
   16.2939949        -2.78141597E-05
   16.3785229        -3.15565158E-05
   16.4630527        -3.55778138E-05
   16.5475807        -3.98746670E-05
   16.6321087        -4.44410434E-05
   16.7166367        -4.92682921E-05
   16.8011646        -5.43451861E-05
   16.8856945        -5.96579484E-05
   16.9702225        -6.51903902E-05
   17.0547504        -7.09240703E-05
   17.1392784        -7.68384489E-05
   17.2238083        -8.29111377E-05
   17.3083363        -8.91180534E-05
   17.3928642        -9.54337011E-05
   17.4773922        -1.01831458E-04
   17.5619221        -1.08283741E-04
   17.6464500        -1.14762333E-04
   17.7309780        -1.21238627E-04
   17.8155060        -1.27683874E-04
   17.9000359        -1.34069400E-04
   17.9845638        -1.40366945E-04
   18.0690918        -1.46548773E-04
   18.1536198        -1.52587934E-04
   18.2381496        -1.58458570E-04
   18.3226776        -1.64135985E-04
   18.4072056        -1.69596955E-04
   18.4917336        -1.74819826E-04
   18.5762634        -1.79784780E-04
   18.6607914        -1.84474004E-04
   18.7453194        -1.88871709E-04
   18.8298473        -1.92964479E-04
   18.9143772        -1.96741210E-04
   18.9989052        -2.00193390E-04
   19.0834332        -2.03315140E-04
   19.1679611        -2.06103199E-04
   19.2524910        -2.08557292E-04
   19.3370190        -2.10679704E-04
   19.4215469        -2.12475716E-04
   19.5060749        -2.13953317E-04
   19.5906048        -2.15123364E-04
   19.6751328        -2.15999185E-04
   19.7596607        -2.16596876E-04
   19.8441887        -2.16934670E-04
   19.9287186        -2.17033143E-04
   20.0132465        -2.16914501E-04
   20.0977745        -2.16602799E-04
   20.1823025        -2.16123182E-04
   20.2668324        -2.15501757E-04
   20.3513603        -2.14765110E-04
   20.4358883        -2.13939769E-04
   20.5204163        -2.13052263E-04
   20.6049442        -2.12128143E-04
   20.6894741        -2.11192018E-04
   20.7740021        -2.10266910E-04
   20.8585300        -2.09374150E-04
   20.9430580        -2.08532976E-04
   21.0275879        -2.07760284E-04
   21.1121159        -2.07070698E-04
   21.1966438        -2.06475990E-04
   21.2811718        -2.05985634E-04
   21.3657017        -2.05606251E-04
   21.4502296        -2.05342149E-04
   21.5347576        -2.05195174E-04
   21.6192856        -2.05165081E-04
   21.7038155        -2.05249336E-04
   21.7883434        -2.05444128E-04
   21.8728714        -2.05743912E-04
   21.9573994        -2.06142198E-04
   22.0419292        -2.06631623E-04
   22.1264572        -2.07204270E-04
   22.2109852        -2.07852179E-04
   22.2955132        -2.08567406E-04
   22.3800430        -2.09342194E-04
   22.4645710        -2.10169601E-04
   22.5490990        -2.11043109E-04
   22.6336269        -2.11957260E-04
   22.7181568        -2.12907296E-04
   22.8026848        -2.13889638E-04
   22.8872128        -2.14901491E-04
   22.9717407        -2.15940949E-04
   23.0562706        -2.17006876E-04
   23.1407986        -2.18098969E-04
   23.2253265        -2.19217240E-04
   23.3098545        -2.20362403E-04
   23.3943844        -2.21535185E-04
   23.4789124        -2.22736533E-04
   23.5634403        -2.23967407E-04
   23.6479683        -2.25228709E-04
   23.7324982        -2.26521210E-04
   23.8170261        -2.27845361E-04
   23.9015541        -2.29201614E-04
   23.9860821        -2.30590216E-04
   24.0706100        -2.32011371E-04
   24.1551399        -2.33465398E-04
   24.2396679        -2.34952793E-04
   24.3241959        -2.36474196E-04
   24.4087238        -2.38031062E-04
   24.4932537        -2.39625209E-04
   24.5777817        -2.41259244E-04
   24.6623096        -2.42936585E-04
   24.7468376        -2.44661729E-04
   24.8313675        -2.46439828E-04
   24.9158955        -2.48277036E-04
   25.0004234        -2.50180252E-04
   25.0849514        -2.52156955E-04
   25.1694813        -2.54215236E-04
   25.2540092        -2.56362924E-04
   25.3385372        -2.58608023E-04
   25.4230652        -2.60957691E-04
   25.5075951        -2.63418537E-04
   25.5921230        -2.65995273E-04
   25.6766510        -2.68691278E-04
   25.7611790        -2.71507568E-04
   25.8457088        -2.74442631E-04
   25.9302368        -2.77491985E-04
   26.0147648        -2.80648121E-04
   26.0992928        -2.83900154E-04
   26.1838226        -2.87233532E-04
   26.2683506        -2.90630385E-04
   26.3528786        -2.94069410E-04
   26.4374065        -2.97525898E-04
   26.5219364        -3.00972664E-04
   26.6064644        -3.04379239E-04
   26.6909924        -3.07714159E-04
   26.7755203        -3.10943928E-04
   26.8600502        -3.14034580E-04
   26.9445782        -3.16952413E-04
   27.0291061        -3.19664599E-04
   27.1136341        -3.22140026E-04
   27.1981640        -3.24350345E-04
   27.2826920        -3.26270732E-04
   27.3672199        -3.27880494E-04
   27.4517479        -3.29164264E-04
   27.5362759        -3.30112322E-04
   27.6208057        -3.30720737E-04
   27.7053337        -3.30993091E-04
   27.7898617        -3.30939452E-04
   27.8743896        -3.30577197E-04
   27.9589195        -3.29930714E-04
   28.0434475        -3.29032104E-04
   28.1279755        -3.27919639E-04
   28.2125034        -3.26638459E-04
   28.2970333        -3.25239060E-04
   28.3815613        -3.23777553E-04
   28.4660892        -3.22314212E-04
   28.5506172        -3.20912659E-04
   28.6351471        -3.19639337E-04
   28.7196751        -3.18561972E-04
   28.8042030        -3.17749043E-04
   28.8887310        -3.17268015E-04
   28.9732609        -3.17185331E-04
   29.0577888        -3.17564642E-04
   29.1423168        -3.18466162E-04
   29.2268448        -3.19945946E-04
   29.3113747        -3.22054839E-04
   29.3959026        -3.24838446E-04
   29.4804306        -3.28335882E-04
   29.5649586        -3.32580006E-04
   29.6494884        -3.37596721E-04
   29.7340164        -3.43405030E-04
   29.8185444        -3.50017246E-04
   29.9030724        -3.57438345E-04
   29.9876022        -3.65667132E-04
   30.0721302        -3.74695606E-04
   30.1566582        -3.84509680E-04
   30.2411861        -3.95089592E-04
   30.3257160        -4.06410167E-04
   30.4102440        -4.18441457E-04
   30.4947720        -4.31148830E-04
   30.5792999        -4.44493664E-04
   30.6638298        -4.58433991E-04
   30.7483578        -4.72924410E-04
   30.8328857        -4.87916608E-04
   30.9174137        -5.03360177E-04
   31.0019417        -5.19202324E-04
   31.0864716        -5.35388244E-04
   31.1709995        -5.51861187E-04
   31.2555275        -5.68563526E-04
   31.3400555        -5.85435075E-04
   31.4245853        -6.02415006E-04
   31.5091133        -6.19440514E-04
   31.5936413        -6.36447861E-04
   31.6781693        -6.53371157E-04
   31.7626991        -6.70143694E-04
   31.8472271        -6.86696265E-04
   31.9317551        -7.02959194E-04
   32.0162849        -7.18860654E-04
   32.1008110        -7.34327419E-04
   32.1853409        -7.49285275E-04
   32.2698708        -7.63658551E-04
   32.3543968        -7.77370646E-04
   32.4389267        -7.90344784E-04
   32.5234528        -8.02503549E-04
   32.6079826        -8.13770341E-04
   32.6925125        -8.24068789E-04
   32.7770386        -8.33324390E-04
   32.8615685        -8.41464614E-04
   32.9460983        -8.48419615E-04
   33.0306244        -8.54123151E-04
   33.1151543        -8.58513755E-04
   33.1996803        -8.61534441E-04
   33.2842102        -8.63135152E-04
   33.3687401        -8.63271824E-04
   33.4532661        -8.61909182E-04
   33.5377960        -8.59019405E-04
   33.6223259        -8.54584738E-04
   33.7068520        -8.48597090E-04
   33.7913818        -8.41059140E-04
   33.8759079        -8.31984100E-04
   33.9604378        -8.21397698E-04
   34.0449677        -8.09336256E-04
   34.1294937        -7.95848842E-04
   34.2140236        -7.80995993E-04
   34.2985535        -7.64850585E-04
   34.3830795        -7.47496379E-04
   34.4676094        -7.29028776E-04
   34.5521355        -7.09552784E-04
   34.6366653        -6.89184002E-04
   34.7211952        -6.68046414E-04
   34.8057213        -6.46271626E-04
   34.8902512        -6.23997999E-04
   34.9747772        -6.01368840E-04
   35.0593071        -5.78531530E-04
   35.1438370        -5.55635605E-04
   35.2283630        -5.32831182E-04
   35.3128929        -5.10267157E-04
   35.3974228        -4.88089892E-04
   35.4819489        -4.66441124E-04
   35.5664787        -4.45456244E-04
   35.6510048        -4.25262930E-04
   35.7355347        -4.05978906E-04
   35.8200645        -3.87710985E-04
   35.9045906        -3.70553171E-04
   35.9891205        -3.54585762E-04
   36.0736504        -3.39873863E-04
   36.1581764        -3.26466776E-04
   36.2427063        -3.14396922E-04
   36.3272324        -3.03679786E-04
   36.4117622        -2.94313417E-04
   36.4962921        -2.86278344E-04
   36.5808182        -2.79538363E-04
   36.6653481        -2.74040620E-04
   36.7498779        -2.69716547E-04
   36.8344040        -2.66483024E-04
   36.9189339        -2.64243805E-04
   37.0034599        -2.62890768E-04
   37.0879898        -2.62305897E-04
   37.1725197        -2.62363086E-04
   37.2570457        -2.62930058E-04
   37.3415756        -2.63870752E-04
   37.4261055        -2.65047303E-04
   37.5106316        -2.66322226E-04
   37.5951614        -2.67560856E-04
   37.6796875        -2.68633245E-04
   37.7642174        -2.69416283E-04
   37.8487473        -2.69795535E-04
   37.9332733        -2.69667013E-04
   38.0178032        -2.68938747E-04
   38.1023293        -2.67532072E-04
   38.1868591        -2.65382667E-04
   38.2713890        -2.62441579E-04
   38.3559151        -2.58675369E-04
   38.4404449        -2.54066894E-04
   38.5249748        -2.48614990E-04
   38.6095009        -2.42334441E-04
   38.6940308        -2.35255255E-04
   38.7785568        -2.27422381E-04
   38.8630867        -2.18894420E-04
   38.9476166        -2.09742473E-04
   39.0321426        -2.00049093E-04
   39.1166725        -1.89906728E-04
   39.2012024        -1.79416063E-04
   39.2857285        -1.68684448E-04
   39.3702583        -1.57824121E-04
   39.4547844        -1.46950479E-04
   39.5393143        -1.36180301E-04
   39.6238441        -1.25629871E-04
   39.7083702        -1.15413270E-04
   39.7929001        -1.05640880E-04
   39.8774300        -9.64174978E-05
   39.9619560        -8.78410065E-05
   40.0464859        -8.00009802E-05
   40.1310120        -7.29773456E-05
   40.2155418        -6.68393914E-05
   40.3000717        -6.16446923E-05
   40.3845978        -5.74384467E-05
   40.4691277        -5.42527741E-05
   40.5536575        -5.21063812E-05
   40.6381836        -5.10042155E-05
   40.7227135        -5.09375168E-05
   40.8072395        -5.18838897E-05
   40.8917694        -5.38076602E-05
   40.9762993        -5.66603485E-05
   41.0608253        -6.03813714E-05
   41.1453552        -6.48988425E-05
   41.2298851        -7.01305835E-05
   41.3144112        -7.59851973E-05
   41.3989410        -8.23633600E-05
   41.4834671        -8.91591117E-05
   41.5679970        -9.62613267E-05
   41.6525269        -1.03555125E-04
   41.7370529        -1.10923480E-04
   41.8215828        -1.18248674E-04
   41.9061089        -1.25413892E-04
   41.9906387        -1.32304747E-04
   42.0751686        -1.38810647E-04
   42.1596947        -1.44826379E-04
   42.2442245        -1.50253210E-04
   42.3287544        -1.55000234E-04
   42.4132805        -1.58985509E-04
   42.4978104        -1.62136887E-04
   42.5823364        -1.64393001E-04
   42.6668663        -1.65703779E-04
   42.7513962        -1.66031212E-04
   42.8359222        -1.65349455E-04
   42.9204521        -1.63645425E-04
   43.0049820        -1.60918367E-04
   43.0895081        -1.57180388E-04
   43.1740379        -1.52455701E-04
   43.2585640        -1.46780731E-04
   43.3430939        -1.40203367E-04
   43.4276237        -1.32782487E-04
   43.5121498        -1.24587299E-04
   43.5966797        -1.15696552E-04
   43.6812096        -1.06197687E-04
   43.7657356        -9.61857513E-05
   43.8502655        -8.57626146E-05
   43.9347916        -7.50357867E-05
   44.0193214        -6.41172301E-05
   44.1038513        -5.31222140E-05
   44.1883774        -4.21681252E-05
   44.2729073        -3.13731543E-05
   44.3574371        -2.08550518E-05
   44.4419632        -1.07298347E-05
   44.5264931        -1.11048564E-06
   44.6110191         7.89436854E-06
   44.6955490         1.61816261E-05
   44.7800789         2.36549840E-05
   44.8646049         3.02260596E-05
   44.9491348         3.58154975E-05
   45.0336647         4.03539307E-05
   45.1181908         4.37828494E-05
   45.2027206         4.60554365E-05
   45.2872467         4.71371277E-05
   45.3717766         4.70061168E-05
   45.4563065         4.56537309E-05
   45.5408325         4.30845321E-05
   45.6253624         3.93163464E-05
   45.7098885         3.43801330E-05
   45.7944183         2.83196005E-05
   45.8789482         2.11907336E-05
   45.9634743         1.30611425E-05
   46.0480042         4.00926592E-06
   46.1325340        -5.87662726E-06
   46.2170601        -1.64993507E-05
   46.3015900        -2.77541312E-05
   46.3861160        -3.95297247E-05
   46.4706459        -5.17097833E-05
   46.5551758        -6.41742226E-05
   46.6397018        -7.68005921E-05
   46.7242317        -8.94654731E-05
   46.8087616        -1.02045866E-04
   46.8932877        -1.14420560E-04
   46.9778175        -1.26471510E-04
   47.0623436        -1.38085001E-04
   47.1468735        -1.49152926E-04
   47.2314034        -1.59573930E-04
   47.3159294        -1.69254243E-04
   47.4004593        -1.78108850E-04
   47.4849892        -1.86062112E-04
   47.5695152        -1.93048589E-04
   47.6540451        -1.99013506E-04
   47.7385712        -2.03913398E-04
   47.8231010        -2.07716104E-04
   47.9076309        -2.10401340E-04
   47.9921570        -2.11960520E-04
   48.0766869        -2.12396902E-04
   48.1612167        -2.11725346E-04
   48.2457428        -2.09972088E-04
   48.3302727        -2.07174351E-04
   48.4147987        -2.03380099E-04
   48.4993286        -1.98647176E-04
   48.5838585        -1.93043015E-04
   48.6683846        -1.86643578E-04
   48.7529144        -1.79532930E-04
   48.8374405        -1.71802239E-04
   48.9219704        -1.63548830E-04
   49.0065002        -1.54875379E-04
   49.0910263        -1.45888771E-04
   49.1755562        -1.36699018E-04
   49.2600861        -1.27418214E-04
   49.3446121        -1.18159369E-04
   49.4291420        -1.09035180E-04
   49.5136681        -1.00156925E-04
   49.5981979        -9.16331555E-05
   49.6827278        -8.35685350E-05
   49.7672539        -7.60625990E-05
   49.8517838        -6.92086323E-05
   49.9363136        -6.30924987E-05
   50.0208397        -5.77916180E-05
   50.1053696        -5.33739876E-05
   50.1898956        -4.98972222E-05
   50.2744255        -4.74078661E-05
   50.3589554        -4.59406474E-05
   50.4434814        -4.55180380E-05
   50.5280113        -4.61498530E-05
   50.6125412        -4.78330185E-05
   50.6970673        -5.05516073E-05
   50.7815971        -5.42769012E-05
   50.8661232        -5.89677802E-05
   50.9506531        -6.45711480E-05
   51.0351830        -7.10226377E-05
   51.1197090        -7.82473871E-05
   51.2042389        -8.61610897E-05
   51.2887688        -9.46711370E-05
   51.3732948        -1.03677805E-04
   51.4578247        -1.13075665E-04
   51.5423508        -1.22755009E-04
   51.6268806        -1.32603469E-04
   51.7114105        -1.42507415E-04
   51.7959366        -1.52353707E-04
   51.8804665        -1.62031094E-04
   51.9649963        -1.71431937E-04
   52.0495224        -1.80453499E-04
   52.1340523        -1.88999402E-04
   52.2185783        -1.96980836E-04
   52.3031082        -2.04317854E-04
   52.3876381        -2.10940096E-04
   52.4721642        -2.16787914E-04
   52.5566940        -2.21812734E-04
   52.6412201        -2.25977696E-04
   52.7257500        -2.29257930E-04
   52.8102798        -2.31640370E-04
   52.8948059        -2.33124098E-04
   52.9793358        -2.33719620E-04
   53.0638657        -2.33448620E-04
   53.1483917        -2.32343373E-04
   53.2329216        -2.30445847E-04
   53.3174477        -2.27806770E-04
   53.4019775        -2.24484960E-04
   53.4865074        -2.20545888E-04
   53.5710335        -2.16060565E-04
   53.6555634        -2.11104663E-04
   53.7400932        -2.05756864E-04
   53.8246193        -2.00098031E-04
   53.9091492        -1.94209744E-04
   53.9936752        -1.88173362E-04
   54.0782051        -1.82068616E-04
   54.1627350        -1.75972964E-04
   54.2472610        -1.69960200E-04
   54.3317909        -1.64099969E-04
   54.4163208        -1.58456663E-04
   54.5008469        -1.53089088E-04
   54.5853767        -1.48049556E-04
   54.6699028        -1.43383761E-04
   54.7544327        -1.39130250E-04
   54.8389626        -1.35320312E-04
   54.9234886        -1.31977838E-04
   55.0080185        -1.29119289E-04
   55.0925484        -1.26753948E-04
   55.1770744        -1.24884056E-04
   55.2616043        -1.23505160E-04
   55.3461304        -1.22606492E-04
   55.4306602        -1.22171434E-04
   55.5151901        -1.22178069E-04
   55.5997162        -1.22599842E-04
   55.6842461        -1.23406164E-04
   55.7687759        -1.24562925E-04
   55.8533020        -1.26033527E-04
   55.9378319        -1.27779233E-04
   56.0223579        -1.29760127E-04
   56.1068878        -1.31935623E-04
   56.1914177        -1.34265152E-04
   56.2759438        -1.36708957E-04
   56.3604736        -1.39228374E-04
   56.4449997        -1.41786571E-04
   56.5295296        -1.44349076E-04
   56.6140594        -1.46883933E-04
   56.6985855        -1.49362444E-04
   56.7831154        -1.51758955E-04
   56.8676453        -1.54051580E-04
   56.9521713        -1.56221882E-04
   57.0367012        -1.58255440E-04
   57.1212273        -1.60141251E-04
   57.2057571        -1.61872158E-04
   57.2902870        -1.63444478E-04
   57.3748131        -1.64857833E-04
   57.4593430        -1.66114900E-04
   57.5438728        -1.67221064E-04
   57.6283989        -1.68184255E-04
   57.7129288        -1.69014456E-04
   57.7974548        -1.69723222E-04
   57.8819847        -1.70323488E-04
   57.9665146        -1.70828993E-04
   58.0510406        -1.71254040E-04
   58.1355705        -1.71612977E-04
   58.2201004        -1.71919848E-04
   58.3046265        -1.72188113E-04
   58.3891563        -1.72430373E-04
   58.4736824        -1.72657936E-04
   58.5582123        -1.72880798E-04
   58.6427422        -1.73107168E-04
   58.7272682        -1.73343738E-04
   58.8117981        -1.73595152E-04
   58.8963280        -1.73864159E-04
   58.9808540        -1.74151792E-04
   59.0653839        -1.74457033E-04
   59.1499100        -1.74777218E-04
   59.2344398        -1.75108071E-04
   59.3189697        -1.75443827E-04
   59.4034958        -1.75777517E-04
   59.4880257        -1.76101239E-04
   59.5725517        -1.76406262E-04
   59.6570816        -1.76683650E-04
   59.7416115        -1.76924121E-04
   59.8261375        -1.77118796E-04
   59.9106674        -1.77259091E-04
   59.9951973        -1.77337453E-04
   60.0797234        -1.77347320E-04
   60.1642532        -1.77283509E-04
   60.2487793        -1.77142487E-04
   60.3333092        -1.76922491E-04
   60.4178391        -1.76623842E-04
   60.5023651        -1.76248839E-04
   60.5868950        -1.75802183E-04
   60.6714249        -1.75290537E-04
   60.7559509        -1.74722940E-04
   60.8404808        -1.74110421E-04
   60.9250069        -1.73466004E-04
   61.0095367        -1.72804430E-04
   61.0940666        -1.72141896E-04
   61.1785927        -1.71495863E-04
   61.2631226        -1.70884567E-04
   61.3476524        -1.70326850E-04
   61.4321785        -1.69841471E-04
   61.5167084        -1.69447056E-04
   61.6012344        -1.69161372E-04
   61.6857643        -1.69001112E-04
   61.7702942        -1.68981336E-04
   61.8548203        -1.69115156E-04
   61.9393501        -1.69413383E-04
   62.0238800        -1.69884035E-04
   62.1084061        -1.70532425E-04
   62.1929359        -1.71360472E-04
   62.2774620        -1.72366708E-04
   62.3619919        -1.73546170E-04
   62.4465218        -1.74890316E-04
   62.5310478        -1.76386995E-04
   62.6155777        -1.78020462E-04
   62.7001076        -1.79771640E-04
   62.7846336        -1.81618263E-04
   62.8691635        -1.83535027E-04
   62.9536896        -1.85494064E-04
   63.0382195        -1.87465441E-04
   63.1227493        -1.89417275E-04
   63.2072754        -1.91316576E-04
   63.2918053        -1.93129468E-04
   63.3763313        -1.94822016E-04
   63.4608612        -1.96360663E-04
   63.5453911        -1.97712725E-04
   63.6299171        -1.98847178E-04
   63.7144470        -1.99734917E-04
   63.7989769        -2.00349634E-04
   63.8835030        -2.00668044E-04