  -4.50000000         0.00000000    
  -4.41547155         0.00000000    
  -4.33094311         0.00000000    
  -4.24641466         0.00000000    
  -4.16188622        -1.79846501E-24
  -4.07735777        -1.36975515E-25
  -3.99282932         9.75297010E-23
  -3.90830088         7.28946049E-22
  -3.82377243         3.08841836E-21
  -3.73924398         9.07791948E-21
  -3.65471554         1.90270088E-20
  -3.57018733         2.42638650E-20
  -3.48565888        -7.85590715E-21
  -3.40113044        -1.54243619E-19
  -3.31660199        -5.49149492E-19
  -3.23207355        -1.36321040E-18
  -3.14754510        -2.71107391E-18
  -3.06301665        -4.45668784E-18
  -2.97848821        -5.92356899E-18
  -2.89395976        -5.59374520E-18
  -2.80943131        -9.79767415E-19
  -2.72490287         1.10625340E-17
  -2.64037442         3.33126974E-17
  -2.55584598         6.63391440E-17
  -2.47131753         1.06047757E-16
  -2.38678908         1.41325727E-16
  -2.30226064         1.52961021E-16
  -2.21773219         1.15266017E-16
  -2.13320374         1.59262419E-18
  -2.04867530        -2.05979050E-16
  -1.96414697        -5.04034579E-16
  -1.87961853        -8.55411850E-16
  -1.79509008        -1.18165914E-15
  -1.71056163        -1.36557815E-15
  -1.62603319        -1.26791780E-15
  -1.54150474        -7.59190972E-16
  -1.45697629         2.37050138E-16
  -1.37244797         1.69826506E-15
  -1.28791952         3.46704455E-15
  -1.20339108         5.23920329E-15
  -1.11886263         6.58689030E-15
  -1.03433418         7.02087992E-15
 -0.949805737         6.08650390E-15
 -0.865277290         3.47766275E-15
 -0.780748844        -8.53906461E-16
 -0.696220458        -6.61903775E-15
 -0.611692011        -1.31617917E-14
 -0.527163565        -1.94913970E-14
 -0.442635119        -2.43746368E-14
 -0.358106703        -2.64778247E-14
 -0.273578256        -2.45427932E-14
 -0.189049825        -1.75831317E-14
 -0.104521386        -5.09293891E-15
  -1.99929532E-02     1.27349040E-14
   6.45354837E-02     3.47875381E-14
  0.149063915         5.88314526E-14
  0.233592346         8.13866864E-14
  0.318120778         9.77657625E-14
  0.402649224         1.02393517E-13
  0.487177670         8.95178029E-14
  0.571706116         5.43668944E-14
  0.656234503        -5.30418215E-15
  0.740762949        -8.74954609E-14
  0.825291395        -1.84462173E-13
  0.909819841        -2.81958349E-13
  0.994348288        -3.59777637E-13
   1.07887673        -3.94023491E-13
   1.16340518        -3.61228408E-13
   1.24793363        -2.43981999E-13
   1.33246195        -3.71808365E-14
   1.41699040         2.46473577E-13
   1.50151885         5.73381891E-13
   1.58604729         8.89927509E-13
   1.67057574         1.12837311E-12
   1.75510418         1.21784863E-12
   1.83963263         1.09924212E-12
   1.92416108         7.41501478E-13
   2.00868940         1.55824870E-13
   2.09321785        -5.96163201E-13
   2.17774630        -1.40366332E-12
   2.26227474        -2.11934441E-12
   2.34680319        -2.58305183E-12
   2.43133163        -2.65357029E-12
   2.51586008        -2.24287776E-12
   2.60038853        -1.34561492E-12
   2.68491697        -5.61687808E-14
   2.76944542         1.43281643E-12
   2.85397387         2.85353902E-12
   2.93850231         3.90642033E-12
   3.02303076         4.31761484E-12
   3.10755920         3.90036657E-12
   3.19208765         2.60750015E-12
   3.27661610         5.62505066E-13
   3.36114454        -1.94035066E-12
   3.44567299        -4.47083820E-12
   3.53020120        -6.52941156E-12
   3.61472964        -7.63530992E-12
   3.69925809        -7.42014089E-12
   3.78378654        -5.70833528E-12
   3.86831498        -2.56721098E-12
   3.95284343         1.68529860E-12
   4.03737211         6.51881977E-12
   4.12190056         1.12684940E-11
   4.20642900         1.52377555E-11
   4.29095745         1.78052833E-11
   4.37548542         1.85144261E-11
   4.46001387         1.71277593E-11
   4.54454231         1.36379675E-11
   4.62907076         8.23788086E-12
   4.71359921         1.26310160E-12
   4.79812765        -6.87133033E-12
   4.88265610        -1.57172799E-11
   4.96718454        -2.48046913E-11
   5.05171299        -3.36111763E-11
   5.13624144        -4.14987107E-11
   5.22076988        -4.76416025E-11
   5.30529833        -5.09808515E-11
   5.38982677        -5.02422895E-11
   5.47435522        -4.40482303E-11
   5.55888367        -3.11330753E-11
   5.64341211        -1.06472123E-11
   5.72794056         1.74947400E-11
   5.81246901         5.22897697E-11
   5.89699745         9.14269077E-11
   5.98152590         1.31249109E-10
   6.06605434         1.66951009E-10
   6.15058279         1.93028551E-10
   6.23511124         2.03947748E-10
   6.31963968         1.94951139E-10
   6.40416813         1.62880251E-10
   6.48869658         1.06873614E-10
   6.57322502         2.88054199E-11
   6.65775347        -6.66365713E-11
   6.74228191        -1.72278442E-10
   6.82681036        -2.79168050E-10
   6.91133881        -3.77568393E-10
   6.99586725        -4.58087485E-10
   7.08039570        -5.12763387E-10
   7.16492414        -5.35933020E-10
   7.24945259        -5.24746468E-10
   7.33398104        -4.79259354E-10
   7.41850948        -4.02114675E-10
   7.50303793        -2.97905978E-10
   7.58756638        -1.72370951E-10
   7.67209482        -3.15984218E-11
   7.75662327         1.18584476E-10
   7.84115171         2.72920408E-10
   7.92567968         4.26679386E-10
   8.01020813         5.75302916E-10
   8.09473705         7.13853310E-10
   8.17926502         8.36439973E-10
   8.26379395         9.35810540E-10
   8.34832191         1.00327069E-09
   8.43285084         1.02903164E-09
   8.51737881         1.00299824E-09
   8.60190773         9.15917953E-10
   8.68643570         7.60726260E-10
   8.77096462         5.33880218E-10
   8.85549259         2.36461434E-10
   8.94002151        -1.25136485E-10
   9.02454948        -5.39049416E-10
   9.10907841        -9.88335858E-10
   9.19360638        -1.45185752E-09
   9.27813530        -1.90549931E-09
   9.36266327        -2.32355757E-09
   9.44719219        -2.68009570E-09
   9.53172016        -2.95012526E-09
   9.61624908        -3.11052184E-09
   9.70077705        -3.14063864E-09
   9.78530502        -3.02268721E-09
   9.86983395        -2.74195155E-09
   9.95436192        -2.28695529E-09
   10.0388908        -1.64966041E-09
   10.1234188        -8.25748525E-10
   10.2079477         1.85031879E-10
   10.2924757         1.37851308E-09
   10.3770046         2.74585865E-09
   10.4615326         4.27354774E-09
   10.5460615         5.94368643E-09
   10.6305895         7.73476927E-09
   10.7151184         9.62286961E-09
   10.7996464         1.15832934E-08
   10.8841753         1.35926204E-08
   10.9687033         1.56310662E-08
   11.0532322         1.76850623E-08
   11.1377602         1.97500292E-08
   11.2222891         2.18332179E-08
   11.3068171         2.39566571E-08
   11.3913460         2.61600643E-08
   11.4758739         2.85036705E-08
   11.5604029         3.10707975E-08
   11.6449308         3.39699042E-08
   11.7294598         3.73358482E-08
   11.8139877         4.13298160E-08
   11.8985167         4.61376395E-08
   11.9830446         5.19658840E-08
   12.0675735         5.90353650E-08
   12.1521015         6.75719249E-08
   12.2366304         7.77941338E-08
   12.3211584         8.98983714E-08
   12.4056873         1.04041426E-07
   12.4902153         1.20321417E-07
   12.5747442         1.38757855E-07
   12.6592722         1.59272147E-07
   12.7438011         1.81669790E-07
   12.8283291         2.05625540E-07
   12.9128580         2.30673578E-07
   12.9973860         2.56203492E-07
   13.0819149         2.81464281E-07
   13.1664429         3.05577259E-07
   13.2509708         3.27558951E-07
   13.3354998         3.46356103E-07
   13.4200277         3.60891704E-07
   13.5045567         3.70123956E-07
   13.5890846         3.73117643E-07
   13.6736135         3.69128031E-07
   13.7581415         3.57696536E-07
   13.8426704         3.38757587E-07
   13.9271984         3.12754878E-07
   14.0117273         2.80766415E-07
   14.0962553         2.44635686E-07
   14.1807842         2.07107036E-07
   14.2653122         1.71962256E-07
   14.3498411         1.44155393E-07
   14.4343691         1.29942364E-07
   14.5188980         1.37000143E-07
   14.6034260         1.74533824E-07
   14.6879549         2.53362742E-07
   14.7724829         3.85985658E-07
   14.8570118         5.86615499E-07
   14.9415398         8.71184511E-07
   15.0260687         1.25730799E-06
   15.1105967         1.76421111E-06
   15.1951256         2.41261387E-06
   15.2796535         3.22456503E-06
   15.3641825         4.22323774E-06
   15.4487104         5.43267697E-06
   15.5332394         6.87750207E-06
   15.6177673         8.58256863E-06
   15.7022963         1.05725958E-05
   15.7868242         1.28717511E-05
   15.8713531         1.55032249E-05
   15.9558811         1.84887685E-05
   16.0404091         2.18482310E-05
   16.1249390         2.55990744E-05
   16.2094669         2.97559309E-05
   16.2939949         3.43301253E-05
   16.3785229         3.93292539E-05
   16.4630527         4.47568200E-05
   16.5475807         5.06118522E-05
   16.6321087         5.68886098E-05
   16.7166367         6.35764227E-05
   16.8011646         7.06594146E-05
   16.8856945         7.81165218E-05
   16.9702225         8.59214269E-05
   17.0547504         9.40426835E-05
   17.1392784         1.02443846E-04
   17.2238083         1.11083740E-04
   17.3083363         1.19916782E-04
   17.3928642         1.28893400E-04
   17.4773922         1.37960509E-04
   17.5619221         1.47062063E-04
   17.6464500         1.56139722E-04
   17.7309780         1.65133446E-04
   17.8155060         1.73982233E-04
   17.9000359         1.82624804E-04
   17.9845638         1.91000494E-04
   18.0690918         1.99049740E-04
   18.1536198         2.06715151E-04
   18.2381496         2.13941952E-04
   18.3226776         2.20678732E-04
   18.4072056         2.26878154E-04
   18.4917336         2.32497390E-04
   18.5762634         2.37498796E-04
   18.6607914         2.41850081E-04
   18.7453194         2.45525036E-04
   18.8298473         2.48503347E-04
   18.9143772         2.50771176E-04
   18.9989052         2.52321071E-04
   19.0834332         2.53151957E-04
   19.1679611         2.53269245E-04
   19.2524910         2.52684666E-04
   19.3370190         2.51415709E-04
   19.4215469         2.49485951E-04
   19.5060749         2.46924115E-04
   19.5906048         2.43764109E-04
   19.6751328         2.40044392E-04
   19.7596607         2.35807456E-04
   19.8441887         2.31099300E-04
   19.9287186         2.25969125E-04
   20.0132465         2.20468457E-04
   20.0977745         2.14650761E-04
   20.1823025         2.08570811E-04
   20.2668324         2.02284165E-04
   20.3513603         1.95846558E-04
   20.4358883         1.89313345E-04
   20.5204163         1.82739037E-04
   20.6049442         1.76176793E-04
   20.6894741         1.69677820E-04
   20.7740021         1.63291130E-04
   20.8585300         1.57062823E-04
   20.9430580         1.51036074E-04
   21.0275879         1.45250306E-04
   21.1121159         1.39741358E-04
   21.1966438         1.34540911E-04
   21.2811718         1.29676177E-04
   21.3657017         1.25170089E-04
   21.4502296         1.21040743E-04
   21.5347576         1.17301555E-04
   21.6192856         1.13961112E-04
   21.7038155         1.11023379E-04
   21.7883434         1.08487337E-04
   21.8728714         1.06347674E-04
   21.9573994         1.04594430E-04
   22.0419292         1.03213548E-04
   22.1264572         1.02186947E-04
   22.2109852         1.01492915E-04
   22.2955132         1.01106489E-04
   22.3800430         1.00999772E-04
   22.4645710         1.01142483E-04
   22.5490990         1.01502264E-04
   22.6336269         1.02045306E-04
   22.7181568         1.02736885E-04
   22.8026848         1.03541825E-04
   22.8872128         1.04424929E-04
   22.9717407         1.05351661E-04
   23.0562706         1.06288833E-04
   23.1407986         1.07204592E-04
   23.2253265         1.08069544E-04
   23.3098545         1.08856591E-04
   23.3943844         1.09541848E-04
   23.4789124         1.10104600E-04
   23.5634403         1.10527930E-04
   23.6479683         1.10798646E-04
   23.7324982         1.10907786E-04
   23.8170261         1.10850415E-04
   23.9015541         1.10625915E-04
   23.9860821         1.10237859E-04
   24.0706100         1.09693829E-04
   24.1551399         1.09005341E-04
   24.2396679         1.08187509E-04
   24.3241959         1.07258980E-04
   24.4087238         1.06241088E-04
   24.4932537         1.05158113E-04
   24.5777817         1.04036008E-04
   24.6623096         1.02902668E-04
   24.7468376         1.01786689E-04
   24.8313675         1.00717334E-04
   24.9158955         9.97238894E-05
   25.0004234         9.88347529E-05
   25.0849514         9.80771511E-05
   25.1694813         9.74766153E-05
   25.2540092         9.70565525E-05
   25.3385372         9.68375389E-05
   25.4230652         9.68371969E-05
   25.5075951         9.70696419E-05
   25.5921230         9.75454386E-05
   25.6766510         9.82712809E-05
   25.7611790         9.92501082E-05
   25.8457088         1.00480640E-04
   25.9302368         1.01958081E-04
   26.0147648         1.03674014E-04
   26.0992928         1.05616266E-04
   26.1838226         1.07769993E-04
   26.2683506         1.10117384E-04
   26.3528786         1.12638503E-04
   26.4374065         1.15311843E-04
   26.5219364         1.18114280E-04
   26.6064644         1.21022327E-04
   26.6909924         1.24012266E-04
   26.7755203         1.27060441E-04
   26.8600502         1.30144472E-04
   26.9445782         1.33242953E-04
   27.0291061         1.36336414E-04
   27.1136341         1.39407421E-04
   27.1981640         1.42440840E-04
   27.2826920         1.45424143E-04
   27.3672199         1.48347608E-04
   27.4517479         1.51204222E-04
   27.5362759         1.53989808E-04
   27.6208057         1.56702852E-04
   27.7053337         1.59344447E-04
   27.7898617         1.61917531E-04
   27.8743896         1.64427547E-04
   27.9589195         1.66881349E-04
   28.0434475         1.69287043E-04
   28.1279755         1.71653606E-04
   28.2125034         1.73990338E-04
   28.2970333         1.76306770E-04
   28.3815613         1.78612070E-04
   28.4660892         1.80914663E-04
   28.5506172         1.83221739E-04
   28.6351471         1.85539218E-04
   28.7196751         1.87871527E-04
   28.8042030         1.90221355E-04
   28.8887310         1.92589461E-04
   28.9732609         1.94974666E-04
   29.0577888         1.97374000E-04
   29.1423168         1.99782837E-04
   29.2268448         2.02194962E-04
   29.3113747         2.04602489E-04
   29.3959026         2.06996803E-04
   29.4804306         2.09368547E-04
   29.5649586         2.11707986E-04
   29.6494884         2.14005602E-04
   29.7340164         2.16252127E-04
   29.8185444         2.18439134E-04
   29.9030724         2.20559712E-04
   29.9876022         2.22608782E-04
   30.0721302         2.24582924E-04
   30.1566582         2.26481119E-04
   30.2411861         2.28305085E-04
   30.3257160         2.30059028E-04
   30.4102440         2.31749989E-04
   30.4947720         2.33387953E-04
   30.5792999         2.34985637E-04
   30.6638298         2.36558437E-04
   30.7483578         2.38124136E-04
   30.8328857         2.39703004E-04
   30.9174137         2.41317059E-04
   31.0019417         2.42989758E-04
   31.0864716         2.44745781E-04
   31.1709995         2.46610347E-04
   31.2555275         2.48608761E-04
   31.3400555         2.50765646E-04
   31.4245853         2.53104925E-04
   31.5091133         2.55648600E-04
   31.5936413         2.58416694E-04
   31.6781693         2.61426583E-04
   31.7626991         2.64693139E-04
   31.8472271         2.68227013E-04
   31.9317551         2.72036006E-04
   32.0162849         2.76123843E-04
   32.1008110         2.80490000E-04
   32.1853409         2.85130140E-04
   32.2698708         2.90035823E-04
   32.3543968         2.95194710E-04
   32.4389267         3.00590851E-04
   32.5234528         3.06204252E-04
   32.6079826         3.12012562E-04
   32.6925125         3.17989790E-04
   32.7770386         3.24108492E-04
   32.8615685         3.30338400E-04
   32.9460983         3.36648256E-04
   33.0306244         3.43005668E-04
   33.1151543         3.49378097E-04
   33.1996803         3.55732394E-04
   33.2842102         3.62035818E-04
   33.3687401         3.68256966E-04
   33.4532661         3.74365511E-04
   33.5377960         3.80331563E-04
   33.6223259         3.86128289E-04
   33.7068520         3.91729263E-04
   33.7913818         3.97111347E-04
   33.8759079         4.02251637E-04
   33.9604378         4.07130923E-04
   34.0449677         4.11729794E-04
   34.1294937         4.16032010E-04
   34.2140236         4.20021766E-04
   34.2985535         4.23685153E-04
   34.3830795         4.27008927E-04
   34.4676094         4.29980631E-04
   34.5521355         4.32587578E-04
   34.6366653         4.34818823E-04
   34.7211952         4.36662318E-04
   34.8057213         4.38106013E-04
   34.8902512         4.39138006E-04
   34.9747772         4.39745549E-04
   35.0593071         4.39915893E-04
   35.1438370         4.39636264E-04
   35.2283630         4.38892923E-04
   35.3128929         4.37672425E-04
   35.3974228         4.35960974E-04
   35.4819489         4.33745765E-04
   35.5664787         4.31013876E-04
   35.6510048         4.27753810E-04
   35.7355347         4.23955091E-04
   35.8200645         4.19608783E-04
   35.9045906         4.14708426E-04
   35.9891205         4.09249478E-04
   36.0736504         4.03230661E-04
   36.1581764         3.96653399E-04
   36.2427063         3.89522698E-04
   36.3272324         3.81847582E-04
   36.4117622         3.73640854E-04
   36.4962921         3.64919310E-04
   36.5808182         3.55704222E-04
   36.6653481         3.46021319E-04
   36.7498779         3.35900142E-04
   36.8344040         3.25374916E-04
   36.9189339         3.14483856E-04
   37.0034599         3.03269044E-04
   37.0879898         2.91776378E-04
   37.1725197         2.80054926E-04
   37.2570457         2.68156960E-04
   37.3415756         2.56137457E-04
   37.4261055         2.44053255E-04
   37.5106316         2.31963262E-04
   37.5951614         2.19927300E-04
   37.6796875         2.08005920E-04
   37.7642174         1.96259803E-04
   37.8487473         1.84749049E-04
   37.9332733         1.73532811E-04
   38.0178032         1.62668613E-04
   38.1023293         1.52211695E-04
   38.1868591         1.42214791E-04
   38.2713890         1.32727233E-04
   38.3559151         1.23794802E-04
   38.4404449         1.15459188E-04
   38.5249748         1.07757434E-04
   38.6095009         1.00721700E-04
   38.6940308         9.43790801E-05
   38.7785568         8.87509086E-05
   38.8630867         8.38529668E-05
   38.9476166         7.96949025E-05
   39.0321426         7.62802665E-05
   39.1166725         7.36064540E-05
   39.2012024         7.16645154E-05
   39.2857285         7.04392223E-05
   39.3702583         6.99091470E-05
   39.4547844         7.00468372E-05
   39.5393143         7.08189109E-05
   39.6238441         7.21864781E-05
   39.7083702         7.41053082E-05
   39.7929001         7.65264995E-05
   39.8774300         7.93966537E-05
   39.9619560         8.26586329E-05
   40.0464859         8.62520828E-05
   40.1310120         9.01139865E-05
   40.2155418         9.41795588E-05
   40.3000717         9.83826831E-05
   40.3845978         1.02656930E-04
   40.4691277         1.06936081E-04
   40.5536575         1.11155074E-04
   40.6381836         1.15250674E-04
   40.7227135         1.19162265E-04
   40.8072395         1.22832644E-04
   40.8917694         1.26208659E-04
   40.9762993         1.29242020E-04
   41.0608253         1.31889756E-04
   41.1453552         1.34114947E-04
   41.2298851         1.35887167E-04
   41.3144112         1.37182768E-04
   41.3989410         1.37985466E-04
   41.4834671         1.38286327E-04
   41.5679970         1.38083924E-04
   41.6525269         1.37384428E-04
   41.7370529         1.36201343E-04
   41.8215828         1.34555463E-04
   41.9061089         1.32474408E-04
   41.9906387         1.29992186E-04
   42.0751686         1.27148771E-04
   42.1596947         1.23989434E-04
   42.2442245         1.20563884E-04
   42.3287544         1.16925759E-04
   42.4132805         1.13131566E-04
   42.4978104         1.09240005E-04
   42.5823364         1.05310850E-04
   42.6668663         1.01404104E-04
   42.7513962         9.75791627E-05
   42.8359222         9.38935482E-05
   42.9204521         9.04024782E-05
   43.0049820         8.71575612E-05
   43.0895081         8.42061490E-05
   43.1740379         8.15907115E-05
   43.2585640         7.93480867E-05
   43.3430939         7.75088702E-05
   43.4276237         7.60970361E-05
   43.5121498         7.51297121E-05
   43.5966797         7.46167789E-05
   43.6812096         7.45608922E-05
   43.7657356         7.49576138E-05
   43.8502655         7.57953094E-05
   43.9347916         7.70556289E-05
   44.0193214         7.87137906E-05
   44.1038513         8.07391043E-05
   44.1883774         8.30953795E-05
   44.2729073         8.57417399E-05
   44.3574371         8.86331254E-05
   44.4419632         9.17213765E-05
   44.5264931         9.49557580E-05
   44.6110191         9.82839265E-05
   44.6955490         1.01652862E-04
   44.7800789         1.05009662E-04
   44.8646049         1.08302491E-04
   44.9491348         1.11481415E-04
   45.0336647         1.14499198E-04
   45.1181908         1.17312113E-04
   45.2027206         1.19880540E-04
   45.2872467         1.22169746E-04
   45.3717766         1.24150203E-04
   45.4563065         1.25798178E-04
   45.5408325         1.27096020E-04
   45.6253624         1.28032349E-04
   45.7098885         1.28602231E-04
   45.7944183         1.28807209E-04
   45.8789482         1.28655098E-04
   45.9634743         1.28159940E-04
   46.0480042         1.27341686E-04
   46.1325340         1.26225757E-04
   46.2170601         1.24842525E-04
   46.3015900         1.23227015E-04
   46.3861160         1.21417987E-04
   46.4706459         1.19457472E-04
   46.5551758         1.17389958E-04
   46.6397018         1.15261581E-04
   46.7242317         1.13119444E-04
   46.8087616         1.11010711E-04
   46.8932877         1.08981891E-04
   46.9778175         1.07077976E-04
   47.0623436         1.05341715E-04
   47.1468735         1.03812934E-04
   47.2314034         1.02527854E-04
   47.3159294         1.01518468E-04
   47.4004593         1.00812133E-04
   47.4849892         1.00431083E-04
   47.5695152         1.00392113E-04
   47.6540451         1.00706333E-04
   47.7385712         1.01379017E-04
   47.8231010         1.02409664E-04
   47.9076309         1.03791826E-04
   47.9921570         1.05513551E-04
   48.0766869         1.07557440E-04
   48.1612167         1.09901055E-04
   48.2457428         1.12517278E-04
   48.3302727         1.15374860E-04
   48.4147987         1.18439028E-04
   48.4993286         1.21671947E-04
   48.5838585         1.25033461E-04
   48.6683846         1.28481712E-04
   48.7529144         1.31973895E-04
   48.8374405         1.35466922E-04
   48.9219704         1.38917938E-04
   49.0065002         1.42285295E-04
   49.0910263         1.45528844E-04
   49.1755562         1.48610561E-04
   49.2600861         1.51495187E-04
   49.3446121         1.54150461E-04
   49.4291420         1.56547627E-04
   49.5136681         1.58661627E-04
   49.5981979         1.60471376E-04
   49.6827278         1.61959892E-04
   49.7672539         1.63114266E-04
   49.8517838         1.63925855E-04
   49.9363136         1.64390047E-04
   50.0208397         1.64506157E-04
   50.1053696         1.64277371E-04
   50.1898956         1.63710516E-04
   50.2744255         1.62815588E-04
   50.3589554         1.61605771E-04
   50.4434814         1.60096984E-04
   50.5280113         1.58307594E-04
   50.6125412         1.56258044E-04
   50.6970673         1.53970512E-04
   50.7815971         1.51468805E-04
   50.8661232         1.48777719E-04
   50.9506531         1.45922924E-04
   51.0351830         1.42930759E-04
   51.1197090         1.39827680E-04
   51.2042389         1.36640330E-04
   51.2887688         1.33395253E-04
   51.3732948         1.30118598E-04
   51.4578247         1.26836007E-04
   51.5423508         1.23572609E-04
   51.6268806         1.20352663E-04
   51.7114105         1.17199575E-04
   51.7959366         1.14135757E-04
   51.8804665         1.11182439E-04
   51.9649963         1.08359651E-04
   52.0495224         1.05686064E-04
   52.1340523         1.03178885E-04
   52.2185783         1.00853649E-04
   52.3031082         9.87243329E-05
   52.3876381         9.68029781E-05
   52.4721642         9.50998801E-05
   52.5566940         9.36232827E-05
   52.6412201         9.23795378E-05
   52.7257500         9.13729891E-05
   52.8102798         9.06058194E-05
   52.8948059         9.00784216E-05
   52.9793358         8.97891368E-05
   53.0638657         8.97343707E-05
   53.1483917         8.99086517E-05
   53.2329216         9.03048640E-05
   53.3174477         9.09141309E-05
   53.4019775         9.17259749E-05
   53.4865074         9.27285510E-05
   53.5710335         9.39087258E-05
   53.6555634         9.52521514E-05
   53.7400932         9.67434607E-05
   53.8246193         9.83665232E-05
   53.9091492         1.00104517E-04
   53.9936752         1.01940066E-04
   54.0782051         1.03855440E-04
   54.1627350         1.05832776E-04
   54.2472610         1.07854037E-04
   54.3317909         1.09901317E-04
   54.4163208         1.11956768E-04
   54.5008469         1.14002774E-04
   54.5853767         1.16022005E-04
   54.6699028         1.17997406E-04
   54.7544327         1.19912205E-04
   54.8389626         1.21750061E-04
   54.9234886         1.23494989E-04
   55.0080185         1.25131352E-04
   55.0925484         1.26644081E-04
   55.1770744         1.28018568E-04
   55.2616043         1.29240841E-04
   55.3461304         1.30297587E-04
   55.4306602         1.31176304E-04
   55.5151901         1.31865454E-04
   55.5997162         1.32354427E-04
   55.6842461         1.32633926E-04
   55.7687759         1.32695961E-04
   55.8533020         1.32533940E-04
   55.9378319         1.32143046E-04
   56.0223579         1.31520224E-04
   56.1068878         1.30664397E-04
   56.1914177         1.29576467E-04
   56.2759438         1.28259795E-04
   56.3604736         1.26719868E-04
   56.4449997         1.24964907E-04
   56.5295296         1.23005448E-04
   56.6140594         1.20854718E-04
   56.6985855         1.18528471E-04
   56.7831154         1.16045070E-04
   56.8676453         1.13425383E-04
   56.9521713         1.10692490E-04
   57.0367012         1.07871645E-04
   57.1212273         1.04990067E-04
   57.2057571         1.02076447E-04
   57.2902870         9.91608395E-05
   57.3748131         9.62741469E-05
   57.4593430         9.34477575E-05
   57.5438728         9.07132126E-05
   57.6283989         8.81016458E-05
   57.7129288         8.56433908E-05
   57.7974548         8.33676313E-05
   57.8819847         8.13018778E-05
   57.9665146         7.94716907E-05
   58.0510406         7.79001493E-05
   58.1355705         7.66076264E-05
   58.2201004         7.56114459E-05
   58.3046265         7.49255269E-05
   58.3891563         7.45601938E-05
   58.4736824         7.45219586E-05
   58.5582123         7.48133534E-05
   58.6427422         7.54329158E-05
   58.7272682         7.63749631E-05
   58.8117981         7.76298330E-05
   58.8963280         7.91838611E-05
   58.9808540         8.10195052E-05
   59.0653839         8.31157813E-05
   59.1499100         8.54483878E-05
   59.2344398         8.79901272E-05
   59.3189697         9.07114518E-05
   59.4034958         9.35806602E-05
   59.4880257         9.65646323E-05
   59.5725517         9.96292292E-05
   59.6570816         1.02739759E-04
   59.7416115         1.05861589E-04
   59.8261375         1.08960499E-04
   59.9106674         1.12003319E-04
   59.9951973         1.14958224E-04
   60.0797234         1.17795287E-04
   60.1642532         1.20486729E-04
   60.2487793         1.23007427E-04
   60.3333092         1.25335093E-04
   60.4178391         1.27450650E-04
   60.5023651         1.29338485E-04
   60.5868950         1.30986416E-04
   60.6714249         1.32386005E-04
   60.7559509         1.33532463E-04
   60.8404808         1.34424627E-04
   60.9250069         1.35064794E-04
   61.0095367         1.35458598E-04
   61.0940666         1.35614653E-04
   61.1785927         1.35544295E-04
   61.2631226         1.35261158E-04
   61.3476524         1.34780901E-04
   61.4321785         1.34120608E-04
   61.5167084         1.33298658E-04
   61.6012344         1.32334069E-04
   61.6857643         1.31246314E-04
   61.7702942         1.30054817E-04
   61.8548203         1.28778760E-04
   61.9393501         1.27436564E-04
   62.0238800         1.26045910E-04
   62.1084061         1.24623140E-04
   62.1929359         1.23183243E-04
   62.2774620         1.21739620E-04
   62.3619919         1.20303819E-04
   62.4465218         1.18885539E-04
   62.5310478         1.17492418E-04
   62.6155777         1.16130148E-04
   62.7001076         1.14802395E-04
   62.7846336         1.13510941E-04
   62.8691635         1.12255853E-04
   62.9536896         1.11035602E-04
   63.0382195         1.09847395E-04
   63.1227493         1.08687396E-04
   63.2072754         1.07551008E-04
   63.2918053         1.06433137E-04
   63.3763313         1.05328632E-04
   63.4608612         1.04232393E-04
   63.5453911         1.03139762E-04
   63.6299171         1.02046775E-04
   63.7144470         1.00950369E-04
   63.7989769         9.98485484E-05
   63.8835030         9.87407038E-05