  -4.50000000         0.00000000    
  -4.41547155         0.00000000    
  -4.33094311         0.00000000    
  -4.24641466         0.00000000    
  -4.16188622        -2.17360564E-25
  -4.07735777         8.04742253E-24
  -3.99282932         1.42244054E-23
  -3.90830088        -3.30446083E-22
  -3.82377243        -2.77741037E-21
  -3.73924398        -1.23837347E-20
  -3.65471554        -3.87467426E-20
  -3.57018733        -9.22913198E-20
  -3.48565888        -1.69188757E-19
  -3.40113044        -2.20703626E-19
  -3.31660199        -1.13398087E-19
  -3.23207355         3.93521741E-19
  -3.14754510         1.60495414E-18
  -3.06301665         3.72279128E-18
  -2.97848821         6.52267730E-18
  -2.89395976         8.91952494E-18
  -2.80943131         8.59142458E-18
  -2.72490287         1.96613821E-18
  -2.64037442        -1.50547996E-17
  -2.55584598        -4.53434571E-17
  -2.47131753        -8.77823124E-17
  -2.38678908        -1.34040118E-16
  -2.30226064        -1.66074574E-16
  -2.21773219        -1.56058144E-16
  -2.13320374        -7.04907899E-17
  -2.04867530         1.20394060E-16
  -1.96414697         4.28320527E-16
  -1.87961853         8.30311987E-16
  -1.79509008         1.25454272E-15
  -1.71056163         1.57519266E-15
  -1.62603319         1.62285541E-15
  -1.54150474         1.21483382E-15
  -1.45697629         2.04990470E-16
  -1.37244797        -1.45365709E-15
  -1.28791952        -3.64726331E-15
  -1.20339108        -6.05923791E-15
  -1.11886263        -8.16813946E-15
  -1.03433418        -9.30114174E-15
 -0.949805737        -8.74839599E-15
 -0.865277290        -5.92853098E-15
 -0.780748844        -5.78561196E-16
 -0.696220458         7.07281828E-15
 -0.611692011         1.61965303E-14
 -0.527163565         2.53629600E-14
 -0.442635119         3.26777383E-14
 -0.358106703         3.60537744E-14
 -0.273578256         3.35872009E-14
 -0.189049825         2.39750982E-14
 -0.104521386         6.89357722E-15
  -1.99929532E-02    -1.67461751E-14
   6.45354837E-02    -4.47272868E-14
  0.149063915        -7.36685967E-14
  0.233592346        -9.93594855E-14
  0.318120778        -1.17228357E-13
  0.402649224        -1.22861004E-13
  0.487177670        -1.12487873E-13
  0.571706116        -8.33883947E-14
  0.656234503        -3.42113287E-14
  0.740762949         3.47415917E-14
  0.825291395         1.21190886E-13
  0.909819841         2.20448985E-13
  0.994348288         3.24884352E-13
   1.07887673         4.23388511E-13
   1.16340518         5.01084038E-13
   1.24793363         5.39613710E-13
   1.33246195         5.18381724E-13
   1.41699040         4.17036550E-13
   1.50151885         2.19258693E-13
   1.58604729        -8.24156824E-14
   1.67057574        -4.81409183E-13
   1.75510418        -9.52598460E-13
   1.83963263        -1.44976186E-12
   1.92416108        -1.90624144E-12
   2.00868940        -2.23976024E-12
   2.09321785        -2.36170090E-12
   2.17774630        -2.19029178E-12
   2.26227474        -1.66619518E-12
   2.34680319        -7.68144500E-13
   2.43133163         4.74227157E-13
   2.51586008         1.97326573E-12
   2.60038853         3.58421734E-12
   2.68491697         5.11543325E-12
   2.76944542         6.34762598E-12
   2.85397387         7.06029159E-12
   2.93850231         7.06202805E-12
   3.02303076         6.22046165E-12
   3.10755920         4.48730896E-12
   3.19208765         1.91458199E-12
   3.27661610        -1.34079325E-12
   3.36114454        -5.02496525E-12
   3.44567299        -8.80689618E-12
   3.53020120        -1.23074207E-11
   3.61472964        -1.51340052E-11
   3.69925809        -1.69173356E-11
   3.78378654        -1.73460100E-11
   3.86831498        -1.61966864E-11
   3.95284343        -1.33580178E-11
   4.03737211        -8.84780443E-12
   4.12190056        -2.82334659E-12
   4.20642900         4.41491028E-12
   4.29095745         1.24270065E-11
   4.37548542         2.06455564E-11
   4.46001387         2.83985700E-11
   4.54454231         3.49451440E-11
   4.62907076         3.95258652E-11
   4.71359921         4.14277744E-11
   4.79812765         4.00611176E-11
   4.88265610         3.50416467E-11
   4.96718454         2.62691448E-11
   5.05171299         1.39903254E-11
   5.13624144        -1.16644942E-12
   5.22076988        -1.81955336E-11
   5.30529833        -3.57647731E-11
   5.38982677        -5.23137159E-11
   5.47435522        -6.61937102E-11
   5.55888367        -7.58367188E-11
   5.64341211        -7.99339692E-11
   5.72794056        -7.76022649E-11
   5.81246901        -6.85154572E-11
   5.89699745        -5.29819626E-11
   5.98152590        -3.19558234E-11
   6.06605434        -6.97744596E-12
   6.15058279         1.99509246E-11
   6.23511124         4.65409412E-11
   6.31963968         7.04254433E-11
   6.40416813         8.93743760E-11
   6.48869658         1.01496984E-10
   6.57322502         1.05411319E-10
   6.65775347         1.00367936E-10
   6.74228191         8.63209226E-11
   6.82681036         6.39448147E-11
   6.91133881         3.46009853E-11
   6.99586725         2.58556604E-13
   7.08039570        -3.66236555E-11
   7.16492414        -7.32506486E-11
   7.24945259        -1.06675287E-10
   7.33398104        -1.34009040E-10
   7.41850948        -1.52655569E-10
   7.50303793        -1.60556665E-10
   7.58756638        -1.56436267E-10
   7.67209482        -1.40023396E-10
   7.75662327        -1.12226492E-10
   7.84115171        -7.52323204E-11
   7.92567968        -3.25008631E-11
   8.01020813         1.13641544E-11
   8.09473705         5.08803902E-11
   8.17926502         8.00844183E-11
   8.26379395         9.30401381E-11
   8.34832191         8.44231143E-11
   8.43285084         5.01288247E-11
   8.51737881        -1.21531552E-11
   8.60190773        -1.02462760E-10
   8.68643570        -2.18247323E-10
   8.77096462        -3.54240276E-10
   8.85549259        -5.02570097E-10
   8.94002151        -6.53107179E-10
   9.02454948        -7.94033728E-10
   9.10907841        -9.12598941E-10
   9.19360638        -9.96005389E-10
   9.27813530        -1.03235287E-09
   9.36266327        -1.01156972E-09
   9.44719219        -9.26240085E-10
   9.53172016        -7.72271858E-10
   9.61624908        -5.49334411E-10
   9.70077705        -2.61035887E-10
   9.78530502         8.51786280E-11
   9.86983395         4.78401319E-10
   9.95436192         9.04866293E-10
   10.0388908         1.34874734E-09
   10.1234188         1.79306359E-09
   10.2079477         2.22063301E-09
   10.2924757         2.61499911E-09
   10.3770046         2.96126879E-09
   10.4615326         3.24682525E-09
   10.5460615         3.46188744E-09
   10.6305895         3.59993746E-09
   10.7151184         3.65804453E-09
   10.7996464         3.63712505E-09
   10.8841753         3.54219742E-09
   10.9687033         3.38271677E-09
   11.0532322         3.17298898E-09
   11.1377602         2.93274094E-09
   11.2222891         2.68781220E-09
   11.3068171         2.47094767E-09
   11.3913460         2.32263075E-09
   11.4758739         2.29187291E-09
   11.5604029         2.43683607E-09
   11.6449308         2.82516410E-09
   11.7294598         3.53388918E-09
   11.8139877         4.64882977E-09
   11.8985167         6.26325258E-09
   11.9830446         8.47583870E-09
   12.0675735         1.13877903E-08
   12.1521015         1.50989923E-08
   12.2366304         1.97034247E-08
   12.3211584         2.52836383E-08
   12.4056873         3.19045412E-08
   12.4902153         3.96066895E-08
   12.5747442         4.83992366E-08
   12.6592722         5.82530042E-08
   12.7438011         6.90938862E-08
   12.8283291         8.07975482E-08
   12.9128580         9.31851787E-08
   12.9973860         1.06021702E-07
   13.0819149         1.19016747E-07
   13.1664429         1.31828671E-07
   13.2509708         1.44072885E-07
   13.3354998         1.55334106E-07
   13.4200277         1.65183465E-07
   13.5045567         1.73200604E-07
   13.5890846         1.79000708E-07
   13.6736135         1.82266049E-07
   13.7581415         1.82782045E-07
   13.8426704         1.80477286E-07
   13.9271984         1.75466880E-07
   14.0117273         1.68097955E-07
   14.0962553         1.58996684E-07
   14.1807842         1.49116204E-07
   14.2653122         1.39783523E-07
   14.3498411         1.32745541E-07
   14.4343691         1.30212342E-07
   14.5188980         1.34897249E-07
   14.6034260         1.50052614E-07
   14.6879549         1.79501370E-07
   14.7724829         2.27663008E-07
   14.8570118         2.99571639E-07
   14.9415398         4.00890372E-07
   15.0260687         5.37914900E-07
   15.1105967         7.17569890E-07
   15.1951256         9.47399542E-07
   15.2796535         1.23554310E-06
   15.3641825         1.59070157E-06
   15.4487104         2.02209822E-06
   15.5332394         2.53941857E-06
   15.6177673         3.15275111E-06
   15.7022963         3.87249474E-06
   15.7868242         4.70929444E-06
   15.8713531         5.67390407E-06
   15.9558811         6.77710432E-06
   16.0404091         8.02958129E-06
   16.1249390         9.44178555E-06
   16.2094669         1.10238225E-05
   16.2939949         1.27853045E-05
   16.3785229         1.47352448E-05
   16.4630527         1.68819133E-05
   16.5475807         1.92327352E-05
   16.6321087         2.17941779E-05
   16.7166367         2.45716365E-05
   16.8011646         2.75693874E-05
   16.8856945         3.07904447E-05
   16.9702225         3.42366220E-05
   17.0547504         3.79083940E-05
   17.1392784         4.18048512E-05
   17.2238083         4.59237635E-05
   17.3083363         5.02615840E-05
   17.3928642         5.48134267E-05
   17.4773922         5.95730489E-05
   17.5619221         6.45330219E-05
   17.6464500         6.96847128E-05
   17.7309780         7.50182808E-05
   17.8155060         8.05229356E-05
   17.9000359         8.61868466E-05
   17.9845638         9.19973536E-05
   18.0690918         9.79410470E-05
   18.1536198         1.04003979E-04
   18.2381496         1.10171582E-04
   18.3226776         1.16429015E-04
   18.4072056         1.22761310E-04
   18.4917336         1.29153355E-04
   18.5762634         1.35590337E-04
   18.6607914         1.42057615E-04
   18.7453194         1.48541134E-04
   18.8298473         1.55027403E-04
   18.9143772         1.61503805E-04
   18.9989052         1.67958671E-04
   19.0834332         1.74381392E-04
   19.1679611         1.80762683E-04
   19.2524910         1.87094716E-04
   19.3370190         1.93370841E-04
   19.4215469         1.99586211E-04
   19.5060749         2.05737393E-04
   19.5906048         2.11822713E-04
   19.6751328         2.17841967E-04
   19.7596607         2.23796669E-04
   19.8441887         2.29689686E-04
   19.9287186         2.35525411E-04
   20.0132465         2.41309506E-04
   20.0977745         2.47048651E-04
   20.1823025         2.52750528E-04
   20.2668324         2.58423592E-04
   20.3513603         2.64076691E-04
   20.4358883         2.69718905E-04
   20.5204163         2.75359344E-04
   20.6049442         2.81006825E-04
   20.6894741         2.86669616E-04
   20.7740021         2.92355224E-04
   20.8585300         2.98070168E-04
   20.9430580         3.03819805E-04
   21.0275879         3.09608033E-04
   21.1121159         3.15437443E-04
   21.1966438         3.21309082E-04
   21.2811718         3.27222340E-04
   21.3657017         3.33175092E-04
   21.4502296         3.39163846E-04
   21.5347576         3.45183624E-04
   21.6192856         3.51228344E-04
   21.7038155         3.57290817E-04
   21.7883434         3.63363244E-04
   21.8728714         3.69437184E-04
   21.9573994         3.75504111E-04
   22.0419292         3.81555583E-04
   22.1264572         3.87583335E-04
   22.2109852         3.93579976E-04
   22.2955132         3.99539043E-04
   22.3800430         4.05455183E-04
   22.4645710         4.11324727E-04
   22.5490990         4.17145377E-04
   22.6336269         4.22916870E-04
   22.7181568         4.28640749E-04
   22.8026848         4.34320653E-04
   22.8872128         4.39961994E-04
   22.9717407         4.45572165E-04
   23.0562706         4.51160420E-04
   23.1407986         4.56737442E-04
   23.2253265         4.62315395E-04
   23.3098545         4.67907259E-04
   23.3943844         4.73527034E-04
   23.4789124         4.79188573E-04
   23.5634403         4.84906195E-04
   23.6479683         4.90693084E-04
   23.7324982         4.96561872E-04
   23.8170261         5.02523442E-04
   23.9015541         5.08586934E-04
   23.9860821         5.14759275E-04
   24.0706100         5.21044596E-04
   24.1551399         5.27443888E-04
   24.2396679         5.33954997E-04
   24.3241959         5.40572219E-04
   24.4087238         5.47286065E-04
   24.4932537         5.54083614E-04
   24.5777817         5.60947810E-04
   24.6623096         5.67858224E-04
   24.7468376         5.74791105E-04
   24.8313675         5.81719447E-04
   24.9158955         5.88613853E-04
   25.0004234         5.95442485E-04
   25.0849514         6.02172106E-04
   25.1694813         6.08768605E-04
   25.2540092         6.15197758E-04
   25.3385372         6.21426152E-04
   25.4230652         6.27421541E-04
   25.5075951         6.33154588E-04
   25.5921230         6.38599275E-04
   25.6766510         6.43733656E-04
   25.7611790         6.48541376E-04
   25.8457088         6.53011841E-04
   25.9302368         6.57141267E-04
   26.0147648         6.60933729E-04
   26.0992928         6.64401043E-04
   26.1838226         6.67563640E-04
   26.2683506         6.70450798E-04
   26.3528786         6.73100702E-04
   26.4374065         6.75560441E-04
   26.5219364         6.77885779E-04
   26.6064644         6.80140452E-04
   26.6909924         6.82396290E-04
   26.7755203         6.84730941E-04
   26.8600502         6.87228632E-04
   26.9445782         6.89977256E-04
   27.0291061         6.93068258E-04
   27.1136341         6.96594128E-04
   27.1981640         7.00647419E-04
   27.2826920         7.05317943E-04
   27.3672199         7.10691907E-04
   27.4517479         7.16849230E-04
   27.5362759         7.23861624E-04
   27.6208057         7.31790497E-04
   27.7053337         7.40685326E-04
   27.7898617         7.50580861E-04
   27.8743896         7.61496252E-04
   27.9589195         7.73432665E-04
   28.0434475         7.86372111E-04
   28.1279755         8.00276117E-04
   28.2125034         8.15084029E-04
   28.2970333         8.30712961E-04
   28.3815613         8.47057439E-04
   28.4660892         8.63988011E-04
   28.5506172         8.81352578E-04
   28.6351471         8.98975821E-04
   28.7196751         9.16660938E-04
   28.8042030         9.34190350E-04
   28.8887310         9.51326743E-04
   28.9732609         9.67815344E-04
   29.0577888         9.83386184E-04
   29.1423168         9.97756026E-04
   29.2268448         1.01063133E-03
   29.3113747         1.02171092E-03
   29.3959026         1.03068922E-03
   29.4804306         1.03725994E-03
   29.5649586         1.04111864E-03
   29.6494884         1.04196696E-03
   29.7340164         1.03951583E-03
   29.8185444         1.03348878E-03
   29.9030724         1.02362595E-03
   29.9876022         1.00968743E-03
   30.0721302         9.91455629E-04
   30.1566582         9.68739332E-04
   30.2411861         9.41376144E-04
   30.3257160         9.09234572E-04
   30.4102440         8.72217352E-04
   30.4947720         8.30262143E-04
   30.5792999         7.83343974E-04
   30.6638298         7.31476117E-04
   30.7483578         6.74711016E-04
   30.8328857         6.13140524E-04
   30.9174137         5.46896365E-04
   31.0019417         4.76148998E-04
   31.0864716         4.01107798E-04
   31.1709995         3.22019303E-04
   31.2555275         2.39165878E-04
   31.3400555         1.52863722E-04
   31.4245853         6.34608441E-05
   31.5091133        -2.86655286E-05
   31.5936413        -1.23111706E-04
   31.6781693        -2.19450551E-04
   31.7626991        -3.17234953E-04
   31.8472271        -4.16000752E-04
   31.9317551        -5.15271036E-04
   32.0162849        -6.14559220E-04
   32.1008110        -7.13373069E-04
   32.1853409        -8.11218517E-04
   32.2698708        -9.07603302E-04
   32.3543968        -1.00204116E-03
   32.4389267        -1.09405490E-03
   32.5234528        -1.18318072E-03
   32.6079826        -1.26897136E-03
   32.6925125        -1.35099958E-03
   32.7770386        -1.42885989E-03
   32.8615685        -1.50217442E-03
   32.9460983        -1.57059275E-03
   33.0306244        -1.63379521E-03
   33.1151543        -1.69149705E-03
   33.1996803        -1.74344634E-03
   33.2842102        -1.78942923E-03
   33.3687401        -1.82926841E-03
   33.4532661        -1.86282664E-03
   33.5377960        -1.89000391E-03
   33.6223259        -1.91074098E-03
   33.7068520        -1.92501815E-03
   33.7913818        -1.93285348E-03
   33.8759079        -1.93430425E-03
   33.9604378        -1.92946405E-03
   34.0449677        -1.91846199E-03
   34.1294937        -1.90146291E-03
   34.2140236        -1.87866215E-03
   34.2985535        -1.85028615E-03
   34.3830795        -1.81658939E-03
   34.4676094        -1.77785184E-03
   34.5521355        -1.73437572E-03
   34.6366653        -1.68648420E-03
   34.7211952        -1.63451792E-03
   34.8057213        -1.57883228E-03
   34.8902512        -1.51979399E-03
   34.9747772        -1.45777874E-03
   35.0593071        -1.39316928E-03
   35.1438370        -1.32635061E-03
   35.2283630        -1.25770934E-03
   35.3128929        -1.18762965E-03
   35.3974228        -1.11649232E-03
   35.4819489        -1.04467117E-03
   35.5664787        -9.72530979E-04
   35.6510048        -9.00427345E-04
   35.7355347        -8.28702119E-04
   35.8200645        -7.57684116E-04
   35.9045906        -6.87686494E-04
   35.9891205        -6.19006110E-04
   36.0736504        -5.51921898E-04
   36.1581764        -4.86694509E-04
   36.2427063        -4.23565099E-04
   36.3272324        -3.62755236E-04
   36.4117622        -3.04465910E-04
   36.4962921        -2.48877477E-04
   36.5808182        -1.96149645E-04
   36.6653481        -1.46420731E-04
   36.7498779        -9.98082251E-05
   36.8344040        -5.64084294E-05
   36.9189339        -1.62968772E-05
   37.0034599         2.04714615E-05
   37.0879898         5.38622371E-05
   37.1725197         8.38609412E-05
   37.2570457         1.10472756E-04
   37.3415756         1.33721886E-04
   37.4261055         1.53651141E-04
   37.5106316         1.70321087E-04
   37.5951614         1.83809563E-04
   37.6796875         1.94210763E-04
   37.7642174         2.01634321E-04
   37.8487473         2.06204466E-04
   37.9332733         2.08059049E-04
   38.0178032         2.07348377E-04
   38.1023293         2.04233991E-04
   38.1868591         1.98887850E-04
   38.2713890         1.91490486E-04
   38.3559151         1.82230186E-04
   38.4404449         1.71301333E-04
   38.5249748         1.58903131E-04
   38.6095009         1.45238082E-04
   38.6940308         1.30510700E-04
   38.7785568         1.14925846E-04
   38.8630867         9.86874074E-05
   38.9476166         8.19966735E-05
   39.0321426         6.50511356E-05
   39.1166725         4.80429371E-05
   39.2012024         3.11576150E-05
   39.2857285         1.45727981E-05
   39.3702583        -1.54297936E-06
   39.4547844        -1.70313688E-05
   39.5393143        -3.17451922E-05
   39.6238441        -4.55494192E-05
   39.7083702        -5.83217989E-05
   39.7929001        -6.99537195E-05
   39.8774300        -8.03505609E-05
   39.9619560        -8.94321784E-05
   40.0464859        -9.71331538E-05
   40.1310120        -1.03402912E-04
   40.2155418        -1.08205742E-04
   40.3000717        -1.11520640E-04
   40.3845978        -1.13340990E-04
   40.4691277        -1.13674323E-04
   40.5536575        -1.12541667E-04
   40.6381836        -1.09976914E-04
   40.7227135        -1.06026229E-04
   40.8072395        -1.00747078E-04
   40.8917694        -9.42074330E-05
   40.9762993        -8.64846952E-05
   41.0608253        -7.76646557E-05
   41.1453552        -6.78404031E-05
   41.2298851        -5.71111741E-05
   41.3144112        -4.55810441E-05
   41.3989410        -3.33579155E-05
   41.4834671        -2.05520955E-05
   41.5679970        -7.27524639E-06
   41.6525269         6.36091909E-06
   41.7370529         2.02456831E-05
   41.8215828         3.42705280E-05
   41.9061089         4.83299737E-05
   41.9906387         6.23228043E-05
   42.0751686         7.61526389E-05
   42.1596947         8.97288919E-05
   42.2442245         1.02967198E-04
   42.3287544         1.15790230E-04
   42.4132805         1.28127853E-04
   42.4978104         1.39917596E-04
   42.5823364         1.51104774E-04
   42.6668663         1.61642412E-04
   42.7513962         1.71491600E-04
   42.8359222         1.80620773E-04
   42.9204521         1.89006183E-04
   43.0049820         1.96630936E-04
   43.0895081         2.03484960E-04
   43.1740379         2.09564561E-04
   43.2585640         2.14871863E-04
   43.3430939         2.19414273E-04
   43.4276237         2.23203810E-04
   43.5121498         2.26256845E-04
   43.5966797         2.28593257E-04
   43.6812096         2.30235921E-04
   43.7657356         2.31210419E-04
   43.8502655         2.31544138E-04
   43.9347916         2.31266182E-04
   44.0193214         2.30406804E-04
   44.1038513         2.28997087E-04
   44.1883774         2.27068507E-04
   44.2729073         2.24652904E-04
   44.3574371         2.21781913E-04
   44.4419632         2.18487301E-04
   44.5264931         2.14800471E-04
   44.6110191         2.10752434E-04
   44.6955490         2.06373981E-04
   44.7800789         2.01695366E-04
   44.8646049         1.96746652E-04
   44.9491348         1.91557396E-04
   45.0336647         1.86157093E-04
   45.1181908         1.80575007E-04
   45.2027206         1.74840316E-04
   45.2872467         1.68982311E-04
   45.3717766         1.63030330E-04
   45.4563065         1.57014045E-04
   45.5408325         1.50963417E-04
   45.6253624         1.44908845E-04
   45.7098885         1.38881180E-04
   45.7944183         1.32911868E-04
   45.8789482         1.27032661E-04
   45.9634743         1.21275916E-04
   46.0480042         1.15674324E-04
   46.1325340         1.10260742E-04
   46.2170601         1.05068073E-04
   46.3015900         1.00129088E-04
   46.3861160         9.54761053E-05
   46.4706459         9.11406896E-05
   46.5551758         8.71534357E-05
   46.6397018         8.35434330E-05
   46.7242317         8.03381336E-05
   46.8087616         7.75628578E-05
   46.8932877         7.52405467E-05
   46.9778175         7.33913548E-05
   47.0623436         7.20323515E-05
   47.1468735         7.11773973E-05
   47.2314034         7.08366279E-05
   47.3159294         7.10164240E-05
   47.4004593         7.17193034E-05
   47.4849892         7.29436506E-05
   47.5695152         7.46836959E-05
   47.6540451         7.69295148E-05
   47.7385712         7.96670574E-05
   47.8231010         8.28780903E-05
   47.9076309         8.65404654E-05
   47.9921570         9.06280693E-05
   48.0766869         9.51111142E-05
   48.1612167         9.99562762E-05
   48.2457428         1.05126914E-04
   48.3302727         1.10583220E-04
   48.4147987         1.16282703E-04
   48.4993286         1.22180121E-04
   48.5838585         1.28227955E-04
   48.6683846         1.34376547E-04
   48.7529144         1.40574411E-04
   48.8374405         1.46768507E-04
   48.9219704         1.52904380E-04
   49.0065002         1.58926618E-04
   49.0910263         1.64778889E-04
   49.1755562         1.70404441E-04
   49.2600861         1.75746201E-04
   49.3446121         1.80747258E-04
   49.4291420         1.85351208E-04
   49.5136681         1.89502491E-04
   49.5981979         1.93146931E-04
   49.6827278         1.96232140E-04
   49.7672539         1.98708076E-04
   49.8517838         2.00527735E-04
   49.9363136         2.01647606E-04
   50.0208397         2.02028226E-04
   50.1053696         2.01635135E-04
   50.1898956         2.00439332E-04
   50.2744255         1.98417736E-04
   50.3589554         1.95554152E-04
   50.4434814         1.91839397E-04
   50.5280113         1.87272119E-04
   50.6125412         1.81858981E-04
   50.6970673         1.75614958E-04
   50.7815971         1.68563711E-04
   50.8661232         1.60737356E-04
   50.9506531         1.52176610E-04
   51.0351830         1.42930614E-04
   51.1197090         1.33056368E-04
   51.2042389         1.22618498E-04
   51.2887688         1.11688627E-04
   51.3732948         1.00344521E-04
   51.4578247         8.86695416E-05
   51.5423508         7.67514866E-05
   51.6268806         6.46817425E-05
   51.7114105         5.25541727E-05
   51.7959366         4.04641141E-05
   51.8804665         2.85071837E-05
   51.9649963         1.67781727E-05
   52.0495224         5.37002961E-06
   52.1340523        -5.62727746E-06
   52.2185783        -1.61277130E-05
   52.3031082        -2.60501401E-05
   52.3876381        -3.53190953E-05
   52.4721642        -4.38656571E-05
   52.5566940        -5.16279506E-05
   52.6412201        -5.85518465E-05
   52.7257500        -6.45912878E-05
   52.8102798        -6.97085343E-05
   52.8948059        -7.38746312E-05
   52.9793358        -7.70692714E-05
   53.0638657        -7.92808860E-05
   53.1483917        -8.05065501E-05
   53.2329216        -8.07519100E-05
   53.3174477        -8.00307535E-05
   53.4019775        -7.83647847E-05
   53.4865074        -7.57832458E-05
   53.5710335        -7.23224657E-05
   53.6555634        -6.80252924E-05
   53.7400932        -6.29405258E-05
   53.8246193        -5.71224882E-05
   53.9091492        -5.06302204E-05
   53.9936752        -4.35268521E-05
   54.0782051        -3.58790203E-05
   54.1627350        -2.77560594E-05
   54.2472610        -1.92293337E-05
   54.3317909        -1.03715292E-05
   54.4163208        -1.25596171E-06
   54.5008469         8.04417687E-06
   54.5853767         1.74563993E-05
   54.6699028         2.69096836E-05
   54.7544327         3.63350191E-05
   54.8389626         4.56659582E-05
   54.9234886         5.48392127E-05
   55.0080185         6.37952471E-05
   55.0925484         7.24783968E-05
   55.1770744         8.08375626E-05
   55.2616043         8.88264258E-05
   55.3461304         9.64035717E-05
   55.4306602         1.03532868E-04
   55.5151901         1.10183522E-04
   55.5997162         1.16329989E-04
   55.6842461         1.21952195E-04
   55.7687759         1.27035295E-04
   55.8533020         1.31569439E-04
   55.9378319         1.35549795E-04
   56.0223579         1.38976146E-04
   56.1068878         1.41852564E-04
   56.1914177         1.44186895E-04
   56.2759438         1.45990751E-04
   56.3604736         1.47278552E-04
   56.4449997         1.48067600E-04
   56.5295296         1.48377163E-04
   56.6140594         1.48228311E-04
   56.6985855         1.47643339E-04
   56.7831154         1.46645281E-04
   56.8676453         1.45257756E-04
   56.9521713         1.43504250E-04
   57.0367012         1.41408120E-04
   57.1212273         1.38992065E-04
   57.2057571         1.36278089E-04
   57.2902870         1.33287234E-04
   57.3748131         1.30039465E-04
   57.4593430         1.26553685E-04
   57.5438728         1.22847661E-04
   57.6283989         1.18938035E-04
   57.7129288         1.14840499E-04
   57.7974548         1.10569898E-04
   57.8819847         1.06140309E-04
   57.9665146         1.01565398E-04
   58.0510406         9.68584136E-05
   58.1355705         9.20325474E-05
   58.2201004         8.71011798E-05
   58.3046265         8.20779169E-05
   58.3891563         7.69769395E-05
   58.4736824         7.18131123E-05
   58.5582123         6.66020642E-05
   58.6427422         6.13603406E-05
   58.7272682         5.61054585E-05
   58.8117981         5.08558405E-05
   58.8963280         4.56307898E-05
   58.9808540         4.04504644E-05
   59.0653839         3.53356263E-05
   59.1499100         3.03076249E-05
   59.2344398         2.53880444E-05
   59.3189697         2.05985998E-05
   59.4034958         1.59608735E-05
   59.4880257         1.14961058E-05
   59.5725517         7.22487630E-06
   59.6570816         3.16696969E-06
   59.7416115        -6.58803685E-07
   59.8261375        -4.23493611E-06
   59.9106674        -7.54530220E-06
   59.9951973        -1.05752215E-05
   60.0797234        -1.33117364E-05
   60.1642532        -1.57435661E-05
   60.2487793        -1.78611899E-05
   60.3333092        -1.96569436E-05
   60.4178391        -2.11249244E-05
   60.5023651        -2.22610524E-05
   60.5868950        -2.30629412E-05
   60.6714249        -2.35299813E-05
   60.7559509        -2.36631768E-05
   60.8404808        -2.34651361E-05
   60.9250069        -2.29400248E-05
   61.0095367        -2.20935235E-05
   61.0940666        -2.09327500E-05
   61.1785927        -1.94663280E-05
   61.2631226        -1.77043330E-05
   61.3476524        -1.56583774E-05
   61.4321785        -1.33415278E-05
   61.5167084        -1.07685482E-05
   61.6012344        -7.95571214E-06
   61.6857643        -4.92110757E-06
   61.7702942        -1.68447480E-06
   61.8548203         1.73263732E-06
   61.9393501         5.30697207E-06
   62.0238800         9.01351723E-06
   62.1084061         1.28256534E-05
   62.1929359         1.67152775E-05
   62.2774620         2.06528912E-05
   62.3619919         2.46079053E-05
   62.4465218         2.85488786E-05
   62.5310478         3.24437860E-05
   62.6155777         3.62604042E-05
   62.7001076         3.99667042E-05
   62.7846336         4.35311886E-05
   62.8691635         4.69234219E-05
   62.9536896         5.01143550E-05
   63.0382195         5.30769321E-05
   63.1227493         5.57863168E-05
   63.2072754         5.82205103E-05
   63.2918053         6.03606968E-05
   63.3763313         6.21916624E-05
   63.4608612         6.37019984E-05
   63.5453911         6.48845962E-05
   63.6299171         6.57366618E-05
   63.7144470         6.62600287E-05
   63.7989769         6.64612526E-05
   63.8835030         6.63514802E-05