  -4.50000000         0.00000000    
  -4.41547155         0.00000000    
  -4.33094311         0.00000000    
  -4.24641466         0.00000000    
  -4.16188622         0.00000000    
  -4.07735777         0.00000000    
  -3.99282932         0.00000000    
  -3.90830088         0.00000000    
  -3.82377243         0.00000000    
  -3.73924398         0.00000000    
  -3.65471554         0.00000000    
  -3.57018733         0.00000000    
  -3.48565888         0.00000000    
  -3.40113044         0.00000000    
  -3.31660199         0.00000000    
  -3.23207355         0.00000000    
  -3.14754510         0.00000000    
  -3.06301665         0.00000000    
  -2.97848821         0.00000000    
  -2.89395976         0.00000000    
  -2.80943131         0.00000000    
  -2.72490287         0.00000000    
  -2.64037442         0.00000000    
  -2.55584598         0.00000000    
  -2.47131753         0.00000000    
  -2.38678908         0.00000000    
  -2.30226064         0.00000000    
  -2.21773219         0.00000000    
  -2.13320374         0.00000000    
  -2.04867530         0.00000000    
  -1.96414697         0.00000000    
  -1.87961853         0.00000000    
  -1.79509008         0.00000000    
  -1.71056163         0.00000000    
  -1.62603319         0.00000000    
  -1.54150474         0.00000000    
  -1.45697629         0.00000000    
  -1.37244797         0.00000000    
  -1.28791952         0.00000000    
  -1.20339108         0.00000000    
  -1.11886263         0.00000000    
  -1.03433418         0.00000000    
 -0.949805737         0.00000000    
 -0.865277290         0.00000000    
 -0.780748844         0.00000000    
 -0.696220458         0.00000000    
 -0.611692011         0.00000000    
 -0.527163565         0.00000000    
 -0.442635119         0.00000000    
 -0.358106703         0.00000000    
 -0.273578256         0.00000000    
 -0.189049825         0.00000000    
 -0.104521386         0.00000000    
  -1.99929532E-02     0.00000000    
   6.45354837E-02     0.00000000    
  0.149063915         0.00000000    
  0.233592346         0.00000000    
  0.318120778         0.00000000    
  0.402649224         0.00000000    
  0.487177670         0.00000000    
  0.571706116         0.00000000    
  0.656234503         0.00000000    
  0.740762949         0.00000000    
  0.825291395         0.00000000    
  0.909819841         0.00000000    
  0.994348288         0.00000000    
   1.07887673         0.00000000    
   1.16340518         0.00000000    
   1.24793363         0.00000000    
   1.33246195         0.00000000    
   1.41699040         0.00000000    
   1.50151885         0.00000000    
   1.58604729         0.00000000    
   1.67057574         0.00000000    
   1.75510418         0.00000000    
   1.83963263         0.00000000    
   1.92416108         0.00000000    
   2.00868940         0.00000000    
   2.09321785         0.00000000    
   2.17774630         0.00000000    
   2.26227474         0.00000000    
   2.34680319         0.00000000    
   2.43133163         0.00000000    
   2.51586008         0.00000000    
   2.60038853         0.00000000    
   2.68491697         0.00000000    
   2.76944542         0.00000000    
   2.85397387         0.00000000    
   2.93850231         0.00000000    
   3.02303076         0.00000000    
   3.10755920         0.00000000    
   3.19208765         0.00000000    
   3.27661610         0.00000000    
   3.36114454         0.00000000    
   3.44567299         0.00000000    
   3.53020120         0.00000000    
   3.61472964         0.00000000    
   3.69925809         0.00000000    
   3.78378654         0.00000000    
   3.86831498         0.00000000    
   3.95284343         0.00000000    
   4.03737211         0.00000000    
   4.12190056         0.00000000    
   4.20642900         0.00000000    
   4.29095745         0.00000000    
   4.37548542         0.00000000    
   4.46001387         0.00000000    
   4.54454231         0.00000000    
   4.62907076         0.00000000    
   4.71359921         0.00000000    
   4.79812765         0.00000000    
   4.88265610         0.00000000    
   4.96718454         0.00000000    
   5.05171299         0.00000000    
   5.13624144         0.00000000    
   5.22076988         0.00000000    
   5.30529833         0.00000000    
   5.38982677         0.00000000    
   5.47435522         0.00000000    
   5.55888367         0.00000000    
   5.64341211         0.00000000    
   5.72794056         0.00000000    
   5.81246901         0.00000000    
   5.89699745         0.00000000    
   5.98152590         0.00000000    
   6.06605434         0.00000000    
   6.15058279         0.00000000    
   6.23511124         0.00000000    
   6.31963968         0.00000000    
   6.40416813         0.00000000    
   6.48869658         0.00000000    
   6.57322502         0.00000000    
   6.65775347         0.00000000    
   6.74228191         0.00000000    
   6.82681036         0.00000000    
   6.91133881         0.00000000    
   6.99586725         0.00000000    
   7.08039570         0.00000000    
   7.16492414         0.00000000    
   7.24945259         0.00000000    
   7.33398104         0.00000000    
   7.41850948         0.00000000    
   7.50303793         0.00000000    
   7.58756638         0.00000000    
   7.67209482         0.00000000    
   7.75662327         0.00000000    
   7.84115171         0.00000000    
   7.92567968         0.00000000    
   8.01020813         0.00000000    
   8.09473705         0.00000000    
   8.17926502         0.00000000    
   8.26379395         0.00000000    
   8.34832191         0.00000000    
   8.43285084         0.00000000    
   8.51737881         0.00000000    
   8.60190773         0.00000000    
   8.68643570         0.00000000    
   8.77096462         0.00000000    
   8.85549259         0.00000000    
   8.94002151         0.00000000    
   9.02454948         0.00000000    
   9.10907841         0.00000000    
   9.19360638         0.00000000    
   9.27813530         0.00000000    
   9.36266327         0.00000000    
   9.44719219         0.00000000    
   9.53172016         0.00000000    
   9.61624908         0.00000000    
   9.70077705         0.00000000    
   9.78530502         0.00000000    
   9.86983395         0.00000000    
   9.95436192         0.00000000    
   10.0388908         0.00000000    
   10.1234188         0.00000000    
   10.2079477         0.00000000    
   10.2924757         0.00000000    
   10.3770046         0.00000000    
   10.4615326         0.00000000    
   10.5460615         0.00000000    
   10.6305895         0.00000000    
   10.7151184         0.00000000    
   10.7996464         0.00000000    
   10.8841753         0.00000000    
   10.9687033         0.00000000    
   11.0532322         0.00000000    
   11.1377602         0.00000000    
   11.2222891         0.00000000    
   11.3068171         0.00000000    
   11.3913460         0.00000000    
   11.4758739         0.00000000    
   11.5604029         0.00000000    
   11.6449308         0.00000000    
   11.7294598         0.00000000    
   11.8139877         0.00000000    
   11.8985167         0.00000000    
   11.9830446         0.00000000    
   12.0675735         0.00000000    
   12.1521015         0.00000000    
   12.2366304         0.00000000    
   12.3211584         0.00000000    
   12.4056873         0.00000000    
   12.4902153         0.00000000    
   12.5747442         0.00000000    
   12.6592722         0.00000000    
   12.7438011         0.00000000    
   12.8283291         0.00000000    
   12.9128580         0.00000000    
   12.9973860         0.00000000    
   13.0819149         0.00000000    
   13.1664429         0.00000000    
   13.2509708         0.00000000    
   13.3354998         0.00000000    
   13.4200277         0.00000000    
   13.5045567         0.00000000    
   13.5890846         0.00000000    
   13.6736135         0.00000000    
   13.7581415         0.00000000    
   13.8426704         0.00000000    
   13.9271984         0.00000000    
   14.0117273         0.00000000    
   14.0962553         0.00000000    
   14.1807842         0.00000000    
   14.2653122         0.00000000    
   14.3498411         0.00000000    
   14.4343691         0.00000000    
   14.5188980         0.00000000    
   14.6034260         0.00000000    
   14.6879549         0.00000000    
   14.7724829         0.00000000    
   14.8570118         0.00000000    
   14.9415398         0.00000000    
   15.0260687         0.00000000    
   15.1105967         0.00000000    
   15.1951256         0.00000000    
   15.2796535         0.00000000    
   15.3641825         0.00000000    
   15.4487104         0.00000000    
   15.5332394         0.00000000    
   15.6177673         0.00000000    
   15.7022963         0.00000000    
   15.7868242         0.00000000    
   15.8713531         0.00000000    
   15.9558811         0.00000000    
   16.0404091         0.00000000    
   16.1249390         0.00000000    
   16.2094669         0.00000000    
   16.2939949         0.00000000    
   16.3785229         0.00000000    
   16.4630527         0.00000000    
   16.5475807         0.00000000    
   16.6321087         0.00000000    
   16.7166367         0.00000000    
   16.8011646         0.00000000    
   16.8856945         0.00000000    
   16.9702225         0.00000000    
   17.0547504         0.00000000    
   17.1392784         0.00000000    
   17.2238083         0.00000000    
   17.3083363         0.00000000    
   17.3928642         0.00000000    
   17.4773922         0.00000000    
   17.5619221         0.00000000    
   17.6464500         0.00000000    
   17.7309780         0.00000000    
   17.8155060         0.00000000    
   17.9000359         0.00000000    
   17.9845638         0.00000000    
   18.0690918         0.00000000    
   18.1536198         0.00000000    
   18.2381496         0.00000000    
   18.3226776         0.00000000    
   18.4072056         0.00000000    
   18.4917336         0.00000000    
   18.5762634         0.00000000    
   18.6607914         0.00000000    
   18.7453194         0.00000000    
   18.8298473         0.00000000    
   18.9143772         0.00000000    
   18.9989052         0.00000000    
   19.0834332         0.00000000    
   19.1679611         0.00000000    
   19.2524910         0.00000000    
   19.3370190         0.00000000    
   19.4215469         0.00000000    
   19.5060749         0.00000000    
   19.5906048         0.00000000    
   19.6751328         0.00000000    
   19.7596607         0.00000000    
   19.8441887         0.00000000    
   19.9287186         0.00000000    
   20.0132465         0.00000000    
   20.0977745         0.00000000    
   20.1823025         0.00000000    
   20.2668324         0.00000000    
   20.3513603         0.00000000    
   20.4358883         0.00000000    
   20.5204163         0.00000000    
   20.6049442         0.00000000    
   20.6894741         0.00000000    
   20.7740021         0.00000000    
   20.8585300         0.00000000    
   20.9430580         0.00000000    
   21.0275879         0.00000000    
   21.1121159         0.00000000    
   21.1966438         0.00000000    
   21.2811718         0.00000000    
   21.3657017         0.00000000    
   21.4502296         0.00000000    
   21.5347576         0.00000000    
   21.6192856         0.00000000    
   21.7038155         0.00000000    
   21.7883434         0.00000000    
   21.8728714         0.00000000    
   21.9573994         0.00000000    
   22.0419292         0.00000000    
   22.1264572         0.00000000    
   22.2109852         0.00000000    
   22.2955132         0.00000000    
   22.3800430         0.00000000    
   22.4645710         0.00000000    
   22.5490990         0.00000000    
   22.6336269         0.00000000    
   22.7181568         0.00000000    
   22.8026848         0.00000000    
   22.8872128         0.00000000    
   22.9717407         0.00000000    
   23.0562706         0.00000000    
   23.1407986         0.00000000    
   23.2253265         0.00000000    
   23.3098545         0.00000000    
   23.3943844         0.00000000    
   23.4789124         0.00000000    
   23.5634403         0.00000000    
   23.6479683         0.00000000    
   23.7324982         0.00000000    
   23.8170261         0.00000000    
   23.9015541         0.00000000    
   23.9860821         0.00000000    
   24.0706100         0.00000000    
   24.1551399         0.00000000    
   24.2396679         0.00000000    
   24.3241959         0.00000000    
   24.4087238         0.00000000    
   24.4932537         0.00000000    
   24.5777817         0.00000000    
   24.6623096         0.00000000    
   24.7468376         0.00000000    
   24.8313675         0.00000000    
   24.9158955         0.00000000    
   25.0004234         0.00000000    
   25.0849514         0.00000000    
   25.1694813         0.00000000    
   25.2540092         0.00000000    
   25.3385372         0.00000000    
   25.4230652         0.00000000    
   25.5075951         0.00000000    
   25.5921230         0.00000000    
   25.6766510         0.00000000    
   25.7611790         0.00000000    
   25.8457088         0.00000000    
   25.9302368         0.00000000    
   26.0147648         0.00000000    
   26.0992928         0.00000000    
   26.1838226         0.00000000    
   26.2683506         0.00000000    
   26.3528786         0.00000000    
   26.4374065         0.00000000    
   26.5219364         0.00000000    
   26.6064644         0.00000000    
   26.6909924         0.00000000    
   26.7755203         0.00000000    
   26.8600502         0.00000000    
   26.9445782         0.00000000    
   27.0291061         0.00000000    
   27.1136341         0.00000000    
   27.1981640         0.00000000    
   27.2826920         0.00000000    
   27.3672199         0.00000000    
   27.4517479         0.00000000    
   27.5362759         0.00000000    
   27.6208057         0.00000000    
   27.7053337         0.00000000    
   27.7898617         0.00000000    
   27.8743896         0.00000000    
   27.9589195         0.00000000    
   28.0434475         0.00000000    
   28.1279755         0.00000000    
   28.2125034         0.00000000    
   28.2970333         0.00000000    
   28.3815613         0.00000000    
   28.4660892         0.00000000    
   28.5506172         0.00000000    
   28.6351471         0.00000000    
   28.7196751         0.00000000    
   28.8042030         0.00000000    
   28.8887310         0.00000000    
   28.9732609         0.00000000    
   29.0577888         0.00000000    
   29.1423168         0.00000000    
   29.2268448         0.00000000    
   29.3113747         0.00000000    
   29.3959026         0.00000000    
   29.4804306         0.00000000    
   29.5649586         0.00000000    
   29.6494884         0.00000000    
   29.7340164         0.00000000    
   29.8185444         0.00000000    
   29.9030724         0.00000000    
   29.9876022         0.00000000    
   30.0721302         0.00000000    
   30.1566582         0.00000000    
   30.2411861         0.00000000    
   30.3257160         0.00000000    
   30.4102440         0.00000000    
   30.4947720         0.00000000    
   30.5792999         0.00000000    
   30.6638298         0.00000000    
   30.7483578         0.00000000    
   30.8328857         0.00000000    
   30.9174137         0.00000000    
   31.0019417         0.00000000    
   31.0864716         0.00000000    
   31.1709995         0.00000000    
   31.2555275         0.00000000    
   31.3400555         0.00000000    
   31.4245853         0.00000000    
   31.5091133         0.00000000    
   31.5936413         0.00000000    
   31.6781693         0.00000000    
   31.7626991         0.00000000    
   31.8472271         0.00000000    
   31.9317551         0.00000000    
   32.0162849         0.00000000    
   32.1008110         0.00000000    
   32.1853409         0.00000000    
   32.2698708         0.00000000    
   32.3543968         0.00000000    
   32.4389267         0.00000000    
   32.5234528         0.00000000    
   32.6079826         0.00000000    
   32.6925125         0.00000000    
   32.7770386         0.00000000    
   32.8615685         0.00000000    
   32.9460983         0.00000000    
   33.0306244         0.00000000    
   33.1151543         0.00000000    
   33.1996803         0.00000000    
   33.2842102         0.00000000    
   33.3687401         0.00000000    
   33.4532661         0.00000000    
   33.5377960         0.00000000    
   33.6223259         0.00000000    
   33.7068520         0.00000000    
   33.7913818         0.00000000    
   33.8759079         0.00000000    
   33.9604378         0.00000000    
   34.0449677         0.00000000    
   34.1294937         0.00000000    
   34.2140236         0.00000000    
   34.2985535         0.00000000    
   34.3830795         0.00000000    
   34.4676094         0.00000000    
   34.5521355         0.00000000    
   34.6366653         0.00000000    
   34.7211952         0.00000000    
   34.8057213         0.00000000    
   34.8902512         0.00000000    
   34.9747772         0.00000000    
   35.0593071         0.00000000    
   35.1438370         0.00000000    
   35.2283630         0.00000000    
   35.3128929         0.00000000    
   35.3974228         0.00000000    
   35.4819489         0.00000000    
   35.5664787         6.88323545E-36
   35.6510048         2.10157411E-35
   35.7355347         3.51393201E-35
   35.8200645         4.92807525E-35
   35.9045906         6.34132596E-35
   35.9891205         6.06367511E-35
   36.0736504         3.09433132E-35
   36.1581764         6.37792929E-35
   36.2427063         2.21540186E-34
   36.3272324         5.02529758E-34
   36.4117622         5.99439625E-34
   36.4962921         4.94164509E-34
   36.5808182         1.06007183E-34
   36.6653481        -6.45765352E-34
   36.7498779        -1.60921301E-33
   36.8344040        -2.75211568E-33
   36.9189339        -3.45766961E-33
   37.0034599        -3.41930736E-33
   37.0879898        -3.61823406E-33
   37.1725197        -3.53626904E-33
   37.2570457        -3.91286511E-33
   37.3415756        -5.39012686E-33
   37.4261055        -7.57153250E-33
   37.5106316        -9.62399559E-33
   37.5951614        -1.21496877E-32
   37.6796875        -1.59723116E-32
   37.7642174        -2.05511266E-32
   37.8487473        -2.27268550E-32
   37.9332733        -2.38946572E-32
   38.0178032        -2.43171313E-32
   38.1023293        -2.58215172E-32
   38.1868591        -2.53155668E-32
   38.2713890        -2.16077535E-32
   38.3559151        -1.69918869E-32
   38.4404449        -7.75825463E-33
   38.5249748         7.15806485E-33
   38.6095009         2.93123622E-32
   38.6940308         5.90305992E-32
   38.7785568         2.73188578E-31
   38.8630867         6.80853851E-31
   38.9476166         1.13054307E-30
   39.0321426         1.47680929E-30
   39.1166725         1.79402838E-30
   39.2012024         2.75372755E-30
   39.2857285         4.41829206E-30
   39.3702583         6.46964631E-30
   39.4547844         8.85945002E-30
   39.5393143         1.22923381E-29
   39.6238441         1.52980497E-29
   39.7083702         2.95552788E-29
   39.7929001         5.42070738E-29
   39.8774300         7.32422672E-29
   39.9619560         8.40861555E-29
   40.0464859         8.21534728E-29
   40.1310120         6.83085763E-29
   40.2155418         4.29693568E-29
   40.3000717        -3.54548130E-30
   40.3845978        -7.51561601E-29
   40.4691277        -1.72048402E-28
   40.5536575        -2.92086511E-28
   40.6381836        -4.30496380E-28
   40.7227135        -5.75238682E-28
   40.8072395        -7.12380205E-28
   40.8917694        -8.26788629E-28
   40.9762993        -9.08187191E-28
   41.0608253        -9.53619493E-28
   41.1453552        -9.63553440E-28
   41.2298851        -9.38574225E-28
   41.3144112        -8.76325762E-28
   41.3989410        -7.75820819E-28
   41.4834671        -6.36457591E-28
   41.5679970        -4.52137814E-28
   41.6525269        -2.19390432E-28
   41.7370529         6.65614810E-29
   41.8215828         4.09017879E-28
   41.9061089         8.09379570E-28
   41.9906387         1.26442722E-27
   42.0751686         1.76358888E-27
   42.1596947         2.28488015E-27
   42.2442245         2.80324515E-27
   42.3287544         3.28081010E-27
   42.4132805         3.68392612E-27
   42.4978104         3.96832164E-27
   42.5823364         4.08822118E-27
   42.6668663         4.00362394E-27
   42.7513962         3.67913325E-27
   42.8359222         3.08829569E-27
   42.9204521         2.22383433E-27
   43.0049820         1.08878809E-27
   43.0895081        -2.98230974E-28
   43.1740379        -1.90593937E-27
   43.2585640        -3.68808959E-27
   43.3430939        -5.58768899E-27
   43.4276237        -7.53758906E-27
   43.5121498        -9.45787680E-27
   43.5966797        -1.12582715E-26
   43.6812096        -1.28368985E-26
   43.7657356        -1.40817588E-26
   43.8502655        -1.48755901E-26
   43.9347916        -1.50951015E-26
   44.0193214        -1.46192242E-26
   44.1038513        -1.33378013E-26
   44.1883774        -1.11593204E-26
   44.2729073        -8.02560584E-27
   44.3574371        -3.91496799E-27
   44.4419632         1.14122317E-27
   44.5264931         7.05451267E-27
   44.6110191         1.36746280E-26
   44.6955490         2.07864217E-26
   44.7800789         2.81114374E-26
   44.8646049         3.53152012E-26
   44.9491348         4.20154621E-26
   45.0336647         4.77945339E-26
   45.1181908         5.22144999E-26
   45.2027206         5.48338879E-26
   45.2872467         5.52283738E-26
   45.3717766         5.30099182E-26
   45.4563065         4.78504074E-26
   45.5408325         3.95065116E-26
   45.6253624         2.78421585E-26
   45.7098885         1.28553520E-26
   45.7944183        -5.29957103E-27
   45.8789482        -2.62919051E-26
   45.9634743        -4.95983629E-26
   46.0480042        -7.44942307E-26
   46.1325340        -1.00052985E-25
   46.2170601        -1.25159130E-25
   46.3015900        -1.48529012E-25
   46.3861160        -1.68746752E-25
   46.4706459        -1.84313579E-25
   46.5551758        -1.93708505E-25
   46.6397018        -1.95460516E-25
   46.7242317        -1.88228486E-25
   46.8087616        -1.70886981E-25
   46.8932877        -1.42614576E-25
   46.9778175        -1.02979604E-25
   47.0623436        -5.20210626E-26
   47.1468735         9.68089410E-27
   47.2314034         8.09486228E-26
   47.3159294         1.59969960E-25
   47.4004593         2.44284313E-25
   47.4849892         3.30796199E-25
   47.5695152         4.15819972E-25
   47.6540451         4.95158770E-25
   47.7385712         5.64220979E-25
   47.8231010         6.18171324E-25
   47.9076309         6.52119115E-25
   47.9921570         6.61338828E-25
   48.0766869         6.41517564E-25
   48.1612167         5.89021287E-25
   48.2457428         5.01171468E-25
   48.3302727         3.76517591E-25
   48.4147987         2.15092614E-25
   48.4993286         1.86384921E-26
   48.5838585        -2.09215748E-25
   48.6683846        -4.62838153E-25
   48.7529144        -7.34553896E-25
   48.8374405        -1.01469393E-24
   48.9219704        -1.29174386E-24
   49.0065002        -1.55259896E-24
   49.0910263        -1.78292820E-24
   49.1755562        -1.96765102E-24
   49.2600861        -2.09151441E-24
   49.3446121        -2.13976312E-24
   49.4291420        -2.09888770E-24
   49.5136681        -1.95742029E-24
   49.5981979        -1.70675638E-24
   49.6827278        -1.34196757E-24
   49.7672539        -8.62560137E-25
   49.8517838        -2.73146022E-25
   49.9363136         4.16023498E-25
   50.0208397         1.18870442E-24
   50.1053696         2.02252833E-24
   50.1898956         2.88913088E-24
   50.2744255         3.75457046E-24
   50.3589554         4.58006015E-24
   50.4434814         5.32302316E-24
   50.5280113         5.93846837E-24
   50.6125412         6.38067067E-24
   50.6970673         6.60510830E-24
   50.7815971         6.57064178E-24
   50.8661232         6.24181182E-24
   50.9506531         5.59123271E-24
   51.0351830         4.60193566E-24
   51.1197090         3.26958252E-24
   51.2042389         1.60441144E-24
   51.2887688        -3.67186895E-25
   51.3732948        -2.60160824E-24
   51.4578247        -5.03758764E-24
   51.5423508        -7.59647887E-24
   51.6268806        -1.01833439E-23
   51.7114105        -1.26889176E-23
   51.7959366        -1.49924672E-23
   51.8804665        -1.69655613E-23
   51.9649963        -1.84766701E-23
   52.0495224        -1.93965514E-23
   52.1340523        -1.96042237E-23
   52.2185783        -1.89933914E-23
   52.3031082        -1.74791145E-23
   52.3876381        -1.50043490E-23
   52.4721642        -1.15462092E-23
   52.5566940        -7.12151440E-24
   52.6412201        -1.79132602E-24
   52.7257500         4.33583473E-24
   52.8102798         1.11024394E-23
   52.8948059         1.83023540E-23
   52.9793358         2.56833957E-23
   53.0638657         3.29522693E-23
   53.1483917         3.97818894E-23
   53.2329216         4.58211782E-23
   53.3174477         5.07071775E-23
   53.4019775         5.40791729E-23
   53.4865074         5.55946378E-23
   53.5710335         5.49463519E-23
   53.6555634         5.18802831E-23
   53.7400932         4.62132988E-23
   53.8246193         3.78502278E-23
   53.9091492         2.67991890E-23
   53.9936752         1.31843838E-23
   54.0782051        -2.74444867E-24
   54.1627350        -2.06068218E-23
   54.2472610        -3.98913423E-23
   54.3317909        -5.99610965E-23
   54.4163208        -8.00651410E-23
   54.5008469        -9.93564062E-23
   54.5853767        -1.16915825E-22
   54.6699028        -1.31782736E-22
   54.7544327        -1.42990733E-22
   54.8389626        -1.49608215E-22
   54.9234886        -1.50782495E-22
   55.0080185        -1.45785850E-22
   55.0925484        -1.34062089E-22
   55.1770744        -1.15271271E-22
   55.2616043        -8.93306657E-23
   55.3461304        -5.64498956E-23
   55.4306602        -1.71576632E-23
   55.5151901         2.76819306E-23
   55.5997162         7.68651299E-23
   55.6842461         1.28858637E-22
   55.7687759         1.81824626E-22
   55.8533020         2.33662089E-22
   55.9378319         2.82063894E-22
   56.0223579         3.24590186E-22
   56.1068878         3.58755209E-22
   56.1914177         3.82127378E-22
   56.2759438         3.92438358E-22
   56.3604736         3.87698225E-22
   56.4449997         3.66312749E-22
   56.5295296         3.27197365E-22
   56.6140594         2.69883149E-22
   56.6985855         1.94608943E-22
   56.7831154         1.02394732E-22
   56.8676453        -4.91008800E-24
   56.9521713        -1.24607421E-22
   57.0367012        -2.53165104E-22
   57.1212273        -3.86268456E-22
   57.2057571        -5.18910936E-22
   57.2902870        -6.45524500E-22
   57.3748131        -7.60148994E-22
   57.4593430        -8.56636906E-22
   57.5438728        -9.28890405E-22
   57.6283989        -9.71123065E-22
   57.7129288        -9.78138247E-22
   57.7974548        -9.45615266E-22
   57.8819847        -8.70389692E-22
   57.9665146        -7.50717903E-22
   58.0510406        -5.86512504E-22
   58.1355705        -3.79532972E-22
   58.2201004        -1.33520211E-22
   58.3046265         1.45734934E-22
   58.3891563         4.50404690E-22
   58.4736824         7.70722254E-22
   58.5582123         1.09517390E-21
   58.6427422         1.41078420E-21
   58.7272682         1.70349769E-21
   58.8117981         1.95864293E-21
   58.8963280         2.16148171E-21
   58.9808540         2.29781384E-21
   59.0653839         2.35463464E-21
   59.1499100         2.32080728E-21
   59.2344398         2.18773520E-21
   59.3189697         1.95000236E-21
   59.4034958         1.60594945E-21
   59.4880257         1.15815444E-21
   59.5725517         6.13789774E-22
   59.6570816        -1.51741466E-23
   59.7416115        -7.11943610E-22
   59.8261375        -1.45507825E-21
   59.9106674        -2.21887988E-21
   59.9951973        -2.97399986E-21
   60.0797234        -3.68827032E-21
   60.1642532        -4.32773828E-21
   60.2487793        -4.85788795E-21
   60.3333092        -5.24502140E-21
   60.4178391        -5.45774818E-21
   60.5023651        -5.46854354E-21
   60.5868950        -5.25530946E-21
   60.6714249        -4.80287519E-21
   60.7559509        -4.10437367E-21
   60.8404808        -3.16241205E-21
   60.9250069        -1.98997502E-21
   61.0095367        -6.10989306E-22
   61.0940666         9.39507236E-22
   61.1785927         2.61564607E-21
   61.2631226         4.36148103E-21
   61.3476524         6.11225565E-21
   61.4321785         7.79615869E-21
   61.5167084         9.33656206E-21
   61.6012344         1.06547018E-20
   61.6857643         1.16727253E-20
   61.7702942         1.23170093E-20
   61.8548203         1.25216784E-20
   61.9393501         1.22321288E-20
   62.0238800         1.14084920E-20
   62.1084061         1.00288169E-20
   62.1929359         8.09185557E-21
   62.2774620         5.61925762E-21
   62.3619919         2.65707962E-21
   62.4465218        -7.23611279E-22
   62.5310478        -4.42706781E-21
   62.6155777        -8.33427846E-21
   62.7001076        -1.23054797E-20
   62.7846336        -1.61837919E-20
   62.8691635        -1.97999412E-20
   62.9536896        -2.29779707E-20
   63.0382195        -2.55418170E-20
   63.1227493        -2.73225834E-20
   63.2072754        -2.81662172E-20
   63.2918053        -2.79413953E-20
   63.3763313        -2.65472535E-20
   63.4608612        -2.39206594E-20
   63.5453911        -2.00426525E-20
   63.6299171        -1.49436931E-20
   63.7144470        -8.70748312E-21
   63.7989769        -1.47287869E-21
   63.8835030         6.56621019E-21