  -4.50000000         0.00000000    
  -4.37320757         0.00000000    
  -4.24641466         0.00000000    
  -4.11962223         0.00000000    
  -3.99282932         0.00000000    
  -3.86603665         0.00000000    
  -3.73924398        -9.93686591E-33
  -3.61245155        -7.76355420E-32
  -3.48565888         8.20073054E-32
  -3.35886621         1.16170778E-30
  -3.23207355        -4.54295559E-31
  -3.10528088         1.15099554E-29
  -2.97848821         7.35191918E-29
  -2.85169554         2.13107158E-28
  -2.72490287         3.75294196E-28
  -2.59811020         2.36271136E-28
  -2.47131753        -9.25287620E-28
  -2.34452486        -3.98079397E-27
  -2.21773219        -8.81657680E-27
  -2.09093952        -1.20416020E-26
  -1.96414697        -4.29758749E-27
  -1.83735430         3.01812543E-26
  -1.71056163         1.07136580E-25
  -1.58376896         2.24239358E-25
  -1.45697629         3.31121678E-25
  -1.33018374         2.98088670E-25
  -1.20339108        -9.01340268E-26
  -1.07659841        -1.07652761E-24
 -0.949805737        -2.77567750E-24
 -0.823013067        -4.92548538E-24
 -0.696220458        -6.63707807E-24
 -0.569427788        -6.34815698E-24
 -0.442635119        -2.27941319E-24
 -0.315842479         6.31996545E-24
 -0.189049825         1.70740960E-23
  -6.22571707E-02     2.19595810E-23
   6.45354837E-02     5.50566733E-24
  0.191328138        -5.44358643E-23
  0.318120778        -1.81225925E-22
  0.444913447        -3.87831309E-22
  0.571706116        -6.59693957E-22
  0.698498726        -9.36163779E-22
  0.825291395        -1.09877343E-21
  0.952084064        -9.77961037E-22
   1.07887673        -3.90068998E-22
   1.20566940         7.88853686E-22
   1.33246195         2.51800786E-21
   1.45925462         4.47919635E-21
   1.58604729         6.00003535E-21
   1.71283996         6.07053230E-21
   1.83963263         3.50933273E-21
   1.96642530        -2.68933462E-21
   2.09321785        -1.28494947E-20
   2.22001052        -2.60439512E-20
   2.34680319        -3.96354415E-20
   2.47359586        -4.91561159E-20
   2.60038853        -4.87495081E-20
   2.72718120        -3.23101949E-20
   2.85397387         4.72294927E-21
   2.98076653         6.32138339E-20
   3.10755920         1.38367348E-19
   3.23435187         2.18687813E-19
   3.36114454         2.86588795E-19
   3.48793697         3.21140155E-19
   3.61472964         3.02935616E-19
   3.74152231         2.20380070E-19
   3.86831498         7.60053936E-20
   3.99510765        -1.09047879E-19
   4.12190056        -2.94259060E-19
   4.24869299        -4.23955267E-19
   4.37548542        -4.36663786E-19
   4.50227833        -2.78214186E-19
   4.62907076         8.42072384E-20
   4.75586367         6.50650189E-19
   4.88265610         1.38304485E-18
   5.00944901         2.20790842E-18
   5.13624144         3.02684866E-18
   5.26303434         3.73209913E-18
   5.38982677         4.22255561E-18
   5.51661968         4.41559516E-18
   5.64341211         4.25180761E-18
   5.77020502         3.69319186E-18
   5.89699745         2.71925638E-18
   6.02379036         1.32795069E-18
   6.15058279        -4.52237529E-19
   6.27737522        -2.53715278E-18
   6.40416813        -4.75473632E-18
   6.53096056        -6.82014510E-18
   6.65775347        -8.33836108E-18
   6.78454590        -8.85338937E-18
   6.91133881        -7.95315134E-18
   7.03813124        -5.42094552E-18
   7.16492414        -1.40207155E-18
   7.29171658         3.46437323E-18
   7.41850948         8.00544073E-18
   7.54530191         1.06115394E-17
   7.67209482         9.48556629E-18
   7.79888725         3.01376515E-18
   7.92567968        -9.81837579E-18
   8.05247211        -2.90740519E-17
   8.17926502        -5.36897822E-17
   8.30605793        -8.15563887E-17
   8.43285084        -1.09870344E-16
   8.55964279        -1.35685678E-16
   8.68643570        -1.56520532E-16
   8.81322861        -1.70829062E-16
   8.94002151        -1.78161151E-16
   9.06681347        -1.78902901E-16
   9.19360638        -1.73611671E-16
   9.32039928        -1.62094207E-16
   9.44719219        -1.42496922E-16
   9.57398415        -1.10732928E-16
   9.70077705        -6.05490584E-17
   9.82756996         1.55780758E-17
   9.95436192         1.24707523E-16
   10.0811548         2.71064757E-16
   10.2079477         4.53439236E-16
   10.3347406         6.62890579E-16
   10.4615326         8.81355040E-16
   10.5883255         1.08169453E-15
   10.7151184         1.22956774E-15
   10.8419113         1.28728033E-15
   10.9687033         1.21945163E-15
   11.0954962         1.00001811E-15
   11.2222891         6.19743620E-16
   11.3490820         9.31162576E-17
   11.4758739        -5.36705169E-16
   11.6026669        -1.19628231E-15
   11.7294598        -1.78486507E-15
   11.8562517        -2.18275054E-15
   11.9830446        -2.26516431E-15
   12.1098375        -1.92087908E-15
   12.2366304        -1.07378250E-15
   12.3634224         2.95361553E-16
   12.4902153         2.13036791E-15
   12.6170082         4.28793404E-15
   12.7438011         6.53602936E-15
   12.8705931         8.56453309E-15
   12.9973860         1.00088386E-14
   13.1241789         1.04850702E-14
   13.2509708         9.63390626E-15
   13.3777637         7.16834581E-15
   13.5045567         2.91983734E-15
   13.6313496        -3.12276166E-15
   13.7581415        -1.07863352E-14
   13.8849344        -1.97020812E-14
   14.0117273        -2.93110805E-14
   14.1385202        -3.88864390E-14
   14.2653122        -4.75699599E-14
   14.3921051        -5.44202744E-14
   14.5188980        -5.84689971E-14
   14.6456909        -5.87817420E-14
   14.7724829        -5.45215355E-14
   14.8992758        -4.50127437E-14
   15.0260687        -2.98042569E-14
   15.1528606        -8.73012549E-15
   15.2796535         1.80351001E-14
   15.4064465         4.99298648E-14
   15.5332394         8.59746980E-14
   15.6600313         1.24763332E-13
   15.7868242         1.64484095E-13
   15.9136171         2.02977432E-13
   16.0404091         2.37833922E-13
   16.1672020         2.66530450E-13
   16.2939949         2.86598436E-13
   16.4207878         2.95809248E-13
   16.5475807         2.92357501E-13
   16.6743736         2.75018479E-13
   16.8011646         2.43254039E-13
   16.9279575         1.97244592E-13
   17.0547504         1.37830448E-13
   17.1815434         6.63559851E-14
   17.3083363        -1.55778507E-14
   17.4351292        -1.06431865E-13
   17.5619221        -2.05084905E-13
   17.6887150        -3.11180281E-13
   17.8155060        -4.25409247E-13
   17.9422989        -5.49669305E-13
   18.0690918        -6.87040756E-13
   18.1958847        -8.41528344E-13
   18.3226776        -1.01752981E-12
   18.4494705        -1.21901198E-12
   18.5762634        -1.44839837E-12
   18.7030544        -1.70520564E-12
   18.8298473        -1.98449373E-12
   18.9566402        -2.27524401E-12
   19.0834332        -2.55880191E-12
   19.2102261        -2.80757492E-12
   19.3370190        -2.98420186E-12
   19.4638119        -3.04142540E-12
   19.5906048        -2.92292015E-12
   19.7173958        -2.56529585E-12
   19.8441887        -1.90146813E-12
   19.9709816        -8.65483575E-13
   20.0977745         6.01190593E-13
   20.2245674         2.54207571E-12
   20.3513603         4.97709903E-12
   20.4781532         7.89350876E-12
   20.6049442         1.12369385E-11
   20.7317371         1.49034396E-11
   20.8585300         1.87333673E-11
   20.9853230         2.25080735E-11
   21.1121159         2.59503512E-11
   21.2389088         2.87294164E-11
   21.3657017         3.04711013E-11
   21.4924946         3.07736336E-11
   21.6192856         2.92290393E-11
   21.7460785         2.54499442E-11
   21.8728714         1.91008841E-11
   21.9996643         9.93309428E-12
   22.1264572        -2.17886690E-12
   22.2532501        -1.72008120E-11
   22.3800430        -3.49052211E-11
   22.5068340        -5.48429982E-11
   22.6336269        -7.63234961E-11
   22.7604198        -9.84058321E-11
   22.8872128        -1.19904239E-10
   23.0140057        -1.39410081E-10
   23.1407986        -1.55332025E-10
   23.2675915        -1.65955624E-10
   23.3943844        -1.69522493E-10
   23.5211754        -1.64327163E-10
   23.6479683        -1.48829629E-10
   23.7747612        -1.21779101E-10
   23.9015541        -8.23433682E-11
   24.0283470        -3.02372710E-11
   24.1551399         3.41580340E-11
   24.2819328         1.09693449E-10
   24.4087238         1.94377389E-10
   24.5355167         2.85336726E-10
   24.6623096         3.78822196E-10
   24.7891026         4.70264050E-10
   24.9158955         5.54384649E-10
   25.0426884         6.25368035E-10
   25.1694813         6.77088774E-10
   25.2962742         7.03393954E-10
   25.4230652         6.98431313E-10
   25.5498581         6.57012500E-10
   25.6766510         5.74996606E-10
   25.8034439         4.49674714E-10
   25.9302368         2.80136442E-10
   26.0570297         6.75944370E-11
   26.1838226        -1.84355628E-10
   26.3106136        -4.69561945E-10
   26.4374065        -7.79252329E-10
   26.5641994        -1.10209530E-09
   26.6909924        -1.42440193E-09
   26.8177853        -1.73047343E-09
   26.9445782        -2.00309658E-09
   27.0713711        -2.22418484E-09
   27.1981640        -2.37554110E-09
   27.3249550        -2.43972953E-09
   27.4517479        -2.40101961E-09
   27.5785408        -2.24637065E-09
   27.7053337        -1.96640304E-09
   27.8321266        -1.55632007E-09
   27.9589195        -1.01672004E-09
   28.0857124        -3.54251017E-10
   28.2125034         4.17943680E-10
   28.3392963         1.28003252E-09
   28.4660892         2.20559526E-09
   28.5928822         3.16204374E-09
   28.7196751         4.11137391E-09
   28.8464680         5.01125985E-09
   28.9732609         5.81646731E-09
   29.1000538         6.48055387E-09
   29.2268448         6.95781388E-09
   29.3536377         7.20539184E-09
   29.4804306         7.18549797E-09
   29.6072235         6.86760870E-09
   29.7340164         6.23057650E-09
   29.8608093         5.26451727E-09
   29.9876022         3.97238908E-09
   30.1143932         2.37113884E-09
   30.2411861         4.92342112E-10
   30.3679790        -1.61775160E-09
   30.4947720        -3.89880972E-09
   30.6215649        -6.27768459E-09
   30.7483578        -8.67034622E-09
   30.8751507        -1.09844480E-08
   31.0019417        -1.31224631E-08
   31.1287346        -1.49852859E-08
   31.2555275        -1.64761840E-08
   31.3823204        -1.75049184E-08
   31.5091133        -1.79918942E-08
   31.6359062        -1.78721464E-08
   31.7626991        -1.70989356E-08
   31.8894920        -1.56468491E-08
   32.0162849        -1.35141667E-08
   32.1430779        -1.07243849E-08
   32.2698708        -7.32678895E-09
   32.3966637        -3.39600703E-09
   32.5234528         9.69489933E-10
   32.6502457         5.64990632E-09
   32.7770386         1.05075832E-08
   32.9038315         1.53912900E-08
   33.0306244         2.01411776E-08
   33.1574173         2.45942147E-08
   33.2842102         2.85898309E-08
   33.4110031         3.19756488E-08
   33.5377960         3.46128779E-08
   33.6645889         3.63814188E-08
   33.7913818         3.71841544E-08
   33.9181747         3.69505422E-08
   34.0449677         3.56391645E-08
   34.1717606         3.32393171E-08
   34.2985535         2.97715008E-08
   34.4253426         2.52868713E-08
   34.5521355         1.98657215E-08
   34.6789284         1.36150922E-08
   34.8057213         6.66570354E-09
   34.9325142        -8.31702596E-10
   35.0593071        -8.71035866E-09
   35.1861000        -1.67916543E-08
   35.3128929        -2.48893475E-08
   35.4396858        -3.28136203E-08
   35.5664787        -4.03749674E-08
   35.6932716        -4.73876902E-08
   35.8200645        -5.36731513E-08
   35.9468575        -5.90626392E-08
   36.0736504        -6.33999946E-08
   36.2004433        -6.65440609E-08
   36.3272324        -6.83710155E-08
   36.4540253        -6.87767141E-08
   36.5808182        -6.76791245E-08
   36.7076111        -6.50209131E-08
   36.8344040        -6.07722939E-08
   36.9611969        -5.49339418E-08
   37.0879898        -4.75400697E-08
   37.2147827        -3.86614687E-08
   37.3415756        -2.84082997E-08
   37.4683685        -1.69324164E-08
   37.5951614        -4.42891590E-09
   37.7219543         8.86336959E-09
   37.8487473         2.26627854E-08
   37.9755402         3.66474460E-08
   38.1023293         5.04597679E-08
   38.2291222         6.37130952E-08
   38.3559151         7.60006102E-08
   38.4827080         8.69063470E-08
   38.6095009         9.60182049E-08
   38.7362938         1.02942913E-07
   38.8630867         1.07322045E-07
   38.9898796         1.08848980E-07
   39.1166725         1.07285949E-07
   39.2434654         1.02480300E-07
   39.3702583         9.43794021E-08
   39.4970512         8.30430977E-08
   39.6238441         6.86530157E-08
   39.7506371         5.15178158E-08
   39.8774300         3.20738991E-08
   40.0042191         1.08808491E-08
   40.1310120        -1.13886225E-08
   40.2578049        -3.39643442E-08
   40.3845978        -5.59998945E-08
   40.5113907        -7.65988233E-08
   40.6381836        -9.48454897E-08
   40.7649765        -1.09839313E-07
   40.8917694        -1.20731485E-07
   41.0185623        -1.26762771E-07
   41.1453552        -1.27300979E-07
   41.2721481        -1.21876369E-07
   41.3989410        -1.10213840E-07
   41.5257339        -9.22597962E-08
   41.6525269        -6.82028940E-08
   41.7793198        -3.84870482E-08
   41.9061089        -3.81599641E-09
   42.0329018         3.48513289E-08
   42.1596947         7.63148051E-08
   42.2864876         1.19156340E-07
   42.4132805         1.61772135E-07
   42.5400734         2.02412409E-07
   42.6668663         2.39227973E-07
   42.7936592         2.70321721E-07
   42.9204521         2.93803168E-07
   43.0472450         3.07843919E-07
   43.1740379         3.10732020E-07
   43.3008308         3.00922977E-07
   43.4276237         2.77085007E-07
   43.5544167         2.38136735E-07
   43.6812096         1.83275858E-07
   43.8079987         1.11996826E-07
   43.9347916         2.40973641E-08
   44.0615845        -8.03274034E-08
   44.1883774        -2.00902676E-07
   44.3151703        -3.37003030E-07
   44.4419632        -4.87792022E-07
   44.5687561        -6.52270160E-07
   44.6955490        -8.29329736E-07
   44.8223419        -1.01781484E-06
   44.9491348        -1.21657990E-06
   45.0759277        -1.42455133E-06
   45.2027206        -1.64078074E-06
   45.3295135        -1.86449381E-06
   45.4563065        -2.09512814E-06
   45.5830994        -2.33235937E-06
   45.7098885        -2.57611168E-06
   45.8366814        -2.82655628E-06
   45.9634743        -3.08408971E-06
   46.0902672        -3.34929678E-06
   46.2170601        -3.62290189E-06
   46.3438530        -3.90569994E-06
   46.4706459        -4.19847765E-06
   46.5974388        -4.50192920E-06
   46.7242317        -4.81655843E-06
   46.8510246        -5.14258591E-06
   46.9778175        -5.47985519E-06
   47.1046104        -5.82774464E-06
   47.2314034        -6.18509330E-06
   47.3581963        -6.55013991E-06
   47.4849892        -6.92048070E-06
   47.6117783        -7.29305293E-06
   47.7385712        -7.66413814E-06
   47.8653641        -8.02940303E-06
   47.9921570        -8.38395226E-06
   48.1189499        -8.72242890E-06
   48.2457428        -9.03911587E-06
   48.3725357        -9.32808871E-06
   48.4993286        -9.58337114E-06
   48.6261215        -9.79910328E-06
   48.7529144        -9.96973722E-06
   48.8797073        -1.00902143E-05
   49.0065002        -1.01561536E-05
   49.1332932        -1.01640326E-05
   49.2600861        -1.01113310E-05
   49.3868790        -9.99667645E-06
   49.5136681        -9.81993981E-06
   49.6404610        -9.58230794E-06
   49.7672539        -9.28631107E-06
   49.8940468        -8.93581455E-06
   50.0208397        -8.53595884E-06
   50.1476326        -8.09306403E-06
   50.2744255        -7.61449064E-06
   50.4012184        -7.10846643E-06
   50.5280113        -6.58388080E-06
   50.6548042        -6.05004925E-06
   50.7815971        -5.51646508E-06
   50.9083900        -4.99253110E-06
   51.0351830        -4.48731726E-06
   51.1619759        -4.00928639E-06
   51.2887688        -3.56607052E-06
   51.4155579        -3.16425894E-06
   51.5423508        -2.80921768E-06
   51.6691437        -2.50495191E-06
   51.7959366        -2.25401391E-06
   51.9227295        -2.05745323E-06
   52.0495224        -1.91481558E-06
   52.1763153        -1.82419456E-06
   52.3031082        -1.78233211E-06
   52.4299011        -1.78474420E-06
   52.5566940        -1.82590429E-06
   52.6834869        -1.89944433E-06
   52.8102798        -1.99837996E-06
   52.9370728        -2.11535348E-06
   53.0638657        -2.24286941E-06
   53.1906586        -2.37354857E-06
   53.3174477        -2.50034600E-06
   53.4442406        -2.61676723E-06
   53.5710335        -2.71705380E-06
   53.6978264        -2.79631900E-06
   53.8246193        -2.85069723E-06
   53.9514122        -2.87738180E-06
   54.0782051        -2.87469720E-06
   54.2049980        -2.84209545E-06
   54.3317909        -2.78011817E-06
   54.4585838        -2.69032762E-06
   54.5853767        -2.57523152E-06
   54.7121696        -2.43815816E-06
   54.8389626        -2.28311433E-06
   54.9657555        -2.11467250E-06
   55.0925484        -1.93780284E-06
   55.2193375        -1.75772516E-06
   55.3461304        -1.57977888E-06
   55.4729233        -1.40927511E-06
   55.5997162        -1.25139002E-06
   55.7265091        -1.11102634E-06
   55.8533020        -9.92745527E-07
   55.9800949        -9.00668113E-07
   56.1068878        -8.38408369E-07
   56.2336807        -8.09005599E-07
   56.3604736        -8.14895088E-07
   56.4872665        -8.57845862E-07
   56.6140594        -9.38938001E-07
   56.7408524        -1.05851939E-06
   56.8676453        -1.21618541E-06
   56.9944382        -1.41074293E-06
   57.1212273        -1.64018843E-06
   57.2480202        -1.90168680E-06
   57.3748131        -2.19155163E-06
   57.5016060        -2.50523362E-06
   57.6283989        -2.83733357E-06
   57.7551918        -3.18159869E-06
   57.8819847        -3.53097516E-06
   58.0087776        -3.87765567E-06
   58.1355705        -4.21316145E-06
   58.2623634        -4.52845052E-06
   58.3891563        -4.81406096E-06
   58.5159492        -5.06027072E-06
   58.6427422        -5.25730684E-06
   58.7695351        -5.39556049E-06
   58.8963280        -5.46584306E-06
   59.0231171        -5.45964667E-06
   59.1499100        -5.36941889E-06
   59.2767029        -5.18885327E-06
   59.4034958        -4.91314950E-06
   59.5302887        -4.53926441E-06
   59.6570816        -4.06615709E-06
   59.7838745        -3.49496418E-06
   59.9106674        -2.82914516E-06
   60.0374603        -2.07457606E-06
   60.1642532        -1.23954749E-06
   60.2910461        -3.34759733E-07
   60.4178391         6.26833128E-07
   60.5446320         1.63022571E-06
   60.6714249         2.65860103E-06
   60.7982178         3.69369468E-06
   60.9250069         4.71619114E-06
   61.0517998         5.70618113E-06
   61.1785927         6.64366280E-06
   61.3053856         7.50905929E-06
   61.4321785         8.28378961E-06
   61.5589714         8.95076209E-06
   61.6857643         9.49492096E-06
   61.8125572         9.90373883E-06
   61.9393501         1.01675869E-05
   62.0661430         1.02801587E-05
   62.1929359         1.02386630E-05
   62.3197289         1.00440420E-05
   62.4465218         9.70101246E-06
   62.5733147         9.21803439E-06
   62.7001076         8.60709224E-06
   62.8268967         7.88350371E-06
   62.9536896         7.06544961E-06
   63.0804825         6.17355727E-06
   63.2072754         5.23030303E-06
   63.3340683         4.25939425E-06
   63.4608612         3.28509122E-06
   63.5876541         2.33148762E-06
   63.7144470         1.42181136E-06
   63.8412399         5.77722858E-07
   63.9680328        -1.81331515E-07
   64.0948257        -8.38719814E-07
   64.2216187        -1.38110613E-06
   64.3484116        -1.79886558E-06
   64.4752045        -2.08635765E-06
   64.6019974        -2.24208770E-06
   64.7287903        -2.26871271E-06
   64.8555832        -2.17293405E-06
   64.9823761        -1.96524911E-06
   65.1091690        -1.65957920E-06
   65.2359619        -1.27278054E-06
   65.3627548        -8.24068707E-07
   65.4895477        -3.34370668E-07
   65.6163330         1.74390621E-07
   65.7431259         6.80011112E-07
   65.8699188         1.16075125E-06
   65.9967117         1.59602951E-06
   66.1235046         1.96708061E-06
   66.2502975         2.25752206E-06
   66.3770905         2.45384331E-06
   66.5038834         2.54578231E-06
   66.6306763         2.52654468E-06
   66.7574692         2.39294422E-06
   66.8842621         2.14538181E-06
   67.0110550         1.78767789E-06
   67.1378479         1.32684499E-06
   67.2646408         7.72683791E-07
   67.3914337         1.37329920E-07
   67.5182266        -5.65256641E-07
   67.6450195        -1.31988133E-06
   67.7718124        -2.11072575E-06
   67.8986053        -2.92188474E-06
   68.0253983        -3.73799185E-06
   68.1521912        -4.54464771E-06
   68.2789841        -5.32893318E-06
   68.4057770        -6.07969969E-06
   68.5325699        -6.78784590E-06
   68.6593628        -7.44640874E-06
   68.7861557        -8.05064337E-06
   68.9129486        -8.59790816E-06
   69.0397415        -9.08747734E-06
   69.1665344        -9.52036407E-06
   69.2933273        -9.89883029E-06
   69.4201126        -1.02261874E-05
   69.5469055        -1.05062072E-05
   69.6736984        -1.07428468E-05
   69.8004913        -1.09397524E-05
   69.9272842        -1.10998826E-05
   70.0540771        -1.12252619E-05
   70.1808701        -1.13166234E-05
   70.3076630        -1.13733349E-05
   70.4344559        -1.13932592E-05
   70.5612488        -1.13727920E-05
   70.6880417        -1.13069627E-05
   70.8148346        -1.11896252E-05
   70.9416275        -1.10137371E-05
   71.0684204        -1.07717069E-05
   71.1952133        -1.04557585E-05
   71.3220062        -1.00583693E-05
   71.4487991        -9.57271550E-06
   71.5755920        -8.99310999E-06
   71.7023849        -8.31539091E-06
   71.8291779        -7.53734048E-06
   71.9559708        -6.65893140E-06
   72.0827637        -5.68264522E-06
   72.2095566        -4.61357831E-06
   72.3363495        -3.45956414E-06
   72.4631424        -2.23112625E-06
   72.5899353        -9.41399094E-07
   72.7167282         3.94078114E-07
   72.8435211         1.75762523E-06
   72.9703140         3.12974748E-06
   73.0971069         4.48956825E-06
   73.2238922         5.81525046E-06
   73.3506851         7.08448533E-06
   73.4774780         8.27499935E-06
   73.6042709         9.36503602E-06
   73.7310638         1.03338662E-05
   73.8578568         1.11622358E-05
   73.9846497         1.18328244E-05
   74.1114426         1.23306008E-05
   74.2382355         1.26431805E-05
   74.3650284         1.27610974E-05
   74.4918213         1.26780124E-05
   74.6186142         1.23908640E-05
   74.7454071         1.18999742E-05
   74.8722000         1.12090593E-05
   74.9989929         1.03252114E-05
   75.1257858         9.25880886E-06
   75.2525787         8.02340310E-06
   75.3793716         6.63551191E-06
   75.5061646         5.11444659E-06
   75.6329575         3.48205276E-06
   75.7597504         1.76240962E-06
   75.8865433        -1.84450357E-08
   76.0133362        -1.83283078E-06
   76.1401291        -3.65181768E-06
   76.2669220        -5.44551676E-06
   76.3937149        -7.18354158E-06
   76.5205078        -8.83535813E-06
   76.6473007        -1.03706743E-05
   76.7740936        -1.17599275E-05
   76.9008865        -1.29746722E-05
   77.0276718        -1.39880030E-05
   77.1544647        -1.47750479E-05
   77.2812576        -1.53133751E-05
   77.4080505        -1.55834368E-05
   77.5348434        -1.55689049E-05
   77.6616364        -1.52571438E-05
   77.7884293        -1.46394959E-05
   77.9152222        -1.37115558E-05
   78.0420151        -1.24734579E-05
   78.1688080        -1.09298780E-05
   78.2956009        -9.09036044E-06
   78.4223938        -6.96907819E-06
   78.5491867        -4.58486056E-06
   78.6759796        -1.96098517E-06
   78.8027725         8.75176738E-07
   78.9295654         3.89250090E-06
   79.0563583         7.05658204E-06
   79.1831512         1.03303055E-05
   79.3099442         1.36744702E-05
   79.4367371         1.70484218E-05
   79.5635300         2.04107891E-05
   79.6903229         2.37202239E-05
   79.8171158         2.69360953E-05
   79.9439087         3.00192423E-05
   80.0707016         3.29325558E-05
   80.1974945         3.56417622E-05
   80.3242874         3.81157879E-05
   80.4510803         4.03273516E-05
   80.5778732         4.22532830E-05
   80.7046585         4.38748139E-05
   80.8314514         4.51777778E-05
   80.9582443         4.61526070E-05
   81.0850372         4.67943973E-05
   81.2118301         4.71027342E-05
   81.3386230         4.70814812E-05
   81.4654160         4.67385544E-05
   81.5922089         4.60856027E-05
   81.7190018         4.51375781E-05
   81.8457947         4.39123760E-05
   81.9725876         4.24304199E-05
   82.0993805         4.07142252E-05
   82.2261734         3.87879663E-05
   82.3529663         3.66771128E-05
   82.4797592         3.44079890E-05
   82.6065521         3.20074832E-05
   82.7333450         2.95026839E-05
   82.8601379         2.69206193E-05
   82.9869308         2.42878978E-05
   83.1137238         2.16305998E-05
   83.2405167         1.89738766E-05
   83.3673096         1.63419227E-05
   83.4941025         1.37575807E-05
   83.6208954         1.12422604E-05
   83.7476883         8.81567394E-06
   83.8744812         6.49577260E-06
   84.0012741         4.29826059E-06
   84.1280670         2.23669485E-06
   84.2548599         3.22178664E-07
   84.3816528        -1.43692466E-06
   84.5084381        -3.03488468E-06
   84.6352310        -4.46899594E-06
   84.7620239        -5.73946363E-06
   84.8888168        -6.84961333E-06
   85.0156097        -7.80570736E-06
   85.1424026        -8.61705576E-06
   85.2691956        -9.29569978E-06
   85.3959885        -9.85626230E-06
   85.5227814        -1.03156481E-05
   85.6495743        -1.06927000E-05
   85.7763672        -1.10077162E-05
   85.9031601        -1.12820171E-05
   86.0299530        -1.15373823E-05
   86.1567459        -1.17954833E-05
   86.2835388        -1.20773411E-05
   86.4103317        -1.24026337E-05
   86.5371246        -1.27893381E-05
   86.6639175        -1.32530186E-05
   86.7907104        -1.38065334E-05
   86.9175034        -1.44595515E-05
   87.0442963        -1.52183102E-05
   87.1710892        -1.60854506E-05
   87.2978821        -1.70599069E-05
   87.4246750        -1.81370542E-05
   87.5514679        -1.93087435E-05
   87.6782608        -2.05637098E-05
   87.8050537        -2.18879522E-05
   87.9318466        -2.32652383E-05
   88.0586395        -2.46775217E-05
   88.1854324        -2.61058449E-05
   88.3122177        -2.75308266E-05
   88.4390106        -2.89333657E-05
   88.5658035        -3.02953249E-05
   88.6925964        -3.16002079E-05
   88.8193893        -3.28337046E-05
   88.9461823        -3.39842045E-05
   89.0729752        -3.50431692E-05
   89.1997681        -3.60053891E-05
   89.3265610        -3.68692745E-05
   89.4533539        -3.76366988E-05
   89.5801468        -3.83129991E-05
   89.7069397        -3.89067172E-05
   89.8337326        -3.94291164E-05
   89.9605255        -3.98939410E-05
   90.0873184        -4.03166086E-05
   90.2141113        -4.07136431E-05
   90.3409042        -4.11020155E-05
   90.4676971        -4.14984133E-05
   90.5944901        -4.19184944E-05
   90.7212830        -4.23762358E-05
   90.8480759        -4.28833155E-05
   90.9748688        -4.34485446E-05
   91.1016617        -4.40774857E-05
   91.2284546        -4.47721031E-05
   91.3552475        -4.55306399E-05
   91.4820404        -4.63474935E-05
   91.6088333        -4.72134670E-05
   91.7356262        -4.81157913E-05
   91.8624191        -4.90388084E-05
   91.9892120        -4.99641646E-05
   92.1159973        -5.08716330E-05
   92.2427902        -5.17396547E-05
   92.3695831        -5.25460600E-05
   92.4963760        -5.32688937E-05
   92.6231689        -5.38870954E-05
   92.7499619        -5.43811584E-05
   92.8767548        -5.47338750E-05
   93.0035477        -5.49307515E-05
   93.1303406        -5.49605793E-05
   93.2571335        -5.48156568E-05
   93.3839264        -5.44920476E-05
   93.5107193        -5.39895736E-05
   93.6375122        -5.33117491E-05
   93.7643051        -5.24656025E-05
   93.8910980        -5.14612912E-05
   94.0178909        -5.03117080E-05
   94.1446838        -4.90319799E-05
   94.2714767        -4.76387904E-05
   94.3982697        -4.61499039E-05
   94.5250626        -4.45834521E-05
   94.6518555        -4.29573629E-05
   94.7786484        -4.12887021E-05
   94.9054413        -3.95933712E-05
   95.0322342        -3.78854529E-05
   95.1590271        -3.61770653E-05
   95.2858200        -3.44780601E-05
   95.4126129        -3.27959096E-05
   95.5394058        -3.11356198E-05
   95.6661987        -2.94999099E-05
   95.7929916        -2.78893349E-05
   95.9197769        -2.63023758E-05
   96.0465698        -2.47359694E-05
   96.1733627        -2.31854756E-05
   96.3001556        -2.16453482E-05
   96.4269485        -2.01092007E-05
   96.5537415        -1.85702556E-05
   96.6805344        -1.70216244E-05
   96.8073273        -1.54564805E-05
   96.9341202        -1.38683317E-05
   97.0609131        -1.22510983E-05
   97.1877060        -1.05992340E-05
   97.3144989        -8.90779029E-06
   97.4412918        -7.17238754E-06
   97.5680847        -5.38920631E-06
   97.6948776        -3.55499060E-06
   97.8216705        -1.66698987E-06
   97.9484634         2.77037685E-07
   98.0752563         2.27880946E-06