  -4.50000000         0.00000000    
  -4.37320757         0.00000000    
  -4.24641466         0.00000000    
  -4.11962223         0.00000000    
  -3.99282932         0.00000000    
  -3.86603665         0.00000000    
  -3.73924398         4.14197594E-33
  -3.61245155        -6.28801830E-33
  -3.48565888        -3.04450451E-31
  -3.35886621        -1.87875895E-30
  -3.23207355        -5.54505775E-30
  -3.10528088         2.43908901E-29
  -2.97848821         1.52834819E-28
  -2.85169554         4.98712096E-28
  -2.72490287         1.13632005E-27
  -2.59811020         1.89087128E-27
  -2.47131753         2.06160632E-27
  -2.34452486         5.70989695E-28
  -2.21773219        -2.44154530E-27
  -2.09093952        -1.22587627E-27
  -1.96414697         2.35215195E-26
  -1.83735430         1.14505638E-25
  -1.71056163         3.43535612E-25
  -1.58376896         8.01929224E-25
  -1.45697629         1.56224239E-24
  -1.33018374         2.60400658E-24
  -1.20339108         3.71544336E-24
  -1.07659841         4.41592265E-24
 -0.949805737         3.98121059E-24
 -0.823013067         1.67451406E-24
 -0.696220458        -2.73807822E-24
 -0.569427788        -8.20519550E-24
 -0.442635119        -1.15317438E-23
 -0.315842479        -6.85242526E-24
 -0.189049825         1.39766967E-23
  -6.22571707E-02     5.94677114E-23
   6.45354837E-02     1.34748600E-22
  0.191328138         2.36294764E-22
  0.318120778         3.46442920E-22
  0.444913447         4.30050413E-22
  0.571706116         4.36400680E-22
  0.698498726         3.09305469E-22
  0.825291395         6.81503720E-24
  0.952084064        -4.71232486E-22
   1.07887673        -1.05404580E-21
   1.20566940        -1.58003382E-21
   1.33246195        -1.80036022E-21
   1.45925462        -1.41941709E-21
   1.58604729        -1.79639633E-22
   1.71283996         2.01428879E-21
   1.83963263         4.95393380E-21
   1.96642530         8.00848319E-21
   2.09321785         1.00818203E-20
   2.22001052         9.69843823E-21
   2.34680319         5.25308560E-21
   2.47359586        -4.57902469E-21
   2.60038853        -2.03276501E-20
   2.72718120        -4.12206621E-20
   2.85397387        -6.48366136E-20
   2.98076653        -8.70736325E-20
   3.10755920        -1.02548870E-19
   3.23435187        -1.05452261E-19
   3.36114454        -9.07591098E-20
   3.48793697        -5.55900850E-20
   3.61472964        -4.35232459E-22
   3.74152231         7.00391208E-20
   3.86831498         1.46797921E-19
   3.99510765         2.16921136E-19
   4.12190056         2.64690739E-19
   4.24869299         2.73142405E-19
   4.37548542         2.25984011E-19
   4.50227833         1.09922338E-19
   4.62907076        -8.24238176E-20
   4.75586367        -3.48825321E-19
   4.88265610        -6.73033386E-19
   5.00944901        -1.02031736E-18
   5.13624144        -1.33444581E-18
   5.26303434        -1.53838730E-18
   5.38982677        -1.54130776E-18
   5.51661968        -1.25380067E-18
   5.64341211        -6.11458940E-19
   5.77020502         3.96015200E-19
   5.89699745         1.69632038E-18
   6.02379036         3.11558694E-18
   6.15058279         4.37866651E-18
   6.27737522         5.13630936E-18
   6.40416813         5.02150331E-18
   6.53096056         3.72931567E-18
   6.65775347         1.10593024E-18
   6.78454590        -2.77422150E-18
   6.91133881        -7.56656765E-18
   7.03813124        -1.26689436E-17
   7.16492414        -1.72970795E-17
   7.29171658        -2.06160855E-17
   7.41850948        -2.19042174E-17
   7.54530191        -2.07124189E-17
   7.67209482        -1.69777034E-17
   7.79888725        -1.10542539E-17
   7.92567968        -3.64245964E-18
   8.05247211         4.37894692E-18
   8.17926502         1.21850818E-17
   8.30605793         1.92443553E-17
   8.43285084         2.54941879E-17
   8.55964279         3.13829446E-17
   8.68643570         3.77264140E-17
   8.81322861         4.53637594E-17
   8.94002151         5.46468765E-17
   9.06681347         6.48548445E-17
   9.19360638         7.36794388E-17
   9.32039928         7.69655296E-17
   9.44719219         6.89009091E-17
   9.57398415         4.28130057E-17
   9.70077705        -7.35795849E-18
   9.82756996        -8.49850060E-17
   9.95436192        -1.88342183E-16
   10.0811548        -3.08314990E-16
   10.2079477        -4.26858892E-16
   10.3347406        -5.16905827E-16
   10.4615326        -5.44347894E-16
   10.5883255        -4.72476884E-16
   10.7151184        -2.68823826E-16
   10.8419113         8.62207476E-17
   10.9687033         5.90240827E-16
   11.0954962         1.21083349E-15
   11.2222891         1.88088875E-15
   11.3490820         2.49905975E-15
   11.4758739         2.93685550E-15
   11.6026669         3.05283528E-15
   11.7294598         2.71310773E-15
   11.8562517         1.81595267E-15
   11.9830446         3.17134826E-16
   12.1098375        -1.74834969E-15
   12.2366304        -4.25249969E-15
   12.3634224        -6.97228945E-15
   12.4902153        -9.60175712E-15
   12.6170082        -1.17784768E-14
   12.7438011        -1.31223767E-14
   12.8705931        -1.32825235E-14
   12.9973860        -1.19858321E-14
   13.1241789        -9.08074122E-15
   13.2509708        -4.56933448E-15
   13.3777637         1.37720252E-15
   13.5045567         8.42237809E-15
   13.6313496         1.60869056E-14
   13.7581415         2.37863843E-14
   13.8849344         3.08781626E-14
   14.0117273         3.67101030E-14
   14.1385202         4.06642595E-14
   14.2653122         4.21905383E-14
   14.3921051         4.08283840E-14
   14.5188980         3.62187053E-14
   14.6456909         2.81117293E-14
   14.7724829         1.63790287E-14
   14.8992758         1.03824142E-15
   15.0260687        -1.77032969E-14
   15.1528606        -3.93847044E-14
   15.2796535        -6.32136962E-14
   15.4064465        -8.79881834E-14
   15.5332394        -1.12038837E-13
   15.6600313        -1.33217832E-13
   15.7868242        -1.48959783E-13
   15.9136171        -1.56434693E-13
   16.0404091        -1.52802155E-13
   16.1672020        -1.35559099E-13
   16.2939949        -1.02954984E-13
   16.4207878        -5.44285415E-14
   16.5475807         8.99525951E-15
   16.6743736         8.44161099E-14
   16.8011646         1.66947402E-13
   16.9279575         2.49837071E-13
   17.0547504         3.24852883E-13
   17.1815434         3.82931913E-13
   17.3083363         4.15056878E-13
   17.4351292         4.13286376E-13
   17.5619221         3.71834047E-13
   17.6887150         2.88075689E-13
   17.8155060         1.63356023E-13
   17.9422989         3.48184815E-15
   18.0690918        -1.81187069E-13
   18.1958847        -3.76096669E-13
   18.3226776        -5.63308731E-13
   18.4494705        -7.22721254E-13
   18.5762634        -8.33615024E-13
   18.7030544        -8.76416615E-13
   18.8298473        -8.34550202E-13
   18.9566402        -6.96250945E-13
   19.0834332        -4.56218288E-13
   19.2102261        -1.17005608E-13
   19.3370190         3.09950660E-13
   19.4638119         8.03733002E-13
   19.5906048         1.33386000E-12
   19.7173958         1.86079190E-12
   19.8441887         2.33710469E-12
   19.9709816         2.70941169E-12
   20.0977745         2.92110086E-12
   20.2245674         2.91591404E-12
   20.3513603         2.64234706E-12
   20.4781532         2.05874792E-12
   20.6049442         1.13888044E-12
   20.7317371        -1.22391206E-13
   20.8585300        -1.70378414E-12
   20.9853230        -3.55321566E-12
   21.1121159        -5.58501032E-12
   21.2389088        -7.67928863E-12
   21.3657017        -9.68412069E-12
   21.4924946        -1.14208226E-11
   21.6192856        -1.26925276E-11
   21.7460785        -1.32959676E-11
   21.8728714        -1.30359473E-11
   21.9996643        -1.17418002E-11
   22.1264572        -9.28484546E-12
   22.2532501        -5.59554313E-12
   22.3800430        -6.79071003E-13
   22.5068340         5.37206998E-12
   22.6336269         1.23696166E-11
   22.7604198         2.00264284E-11
   22.8872128         2.79593709E-11
   23.0140057         3.56988848E-11
   23.1407986         4.27051901E-11
   23.2675915         4.83909683E-11
   23.3943844         5.21500551E-11
   23.5211754         5.33911214E-11
   23.6479683         5.15750498E-11
   23.7747612         4.62546529E-11
   23.9015541         3.71147210E-11
   24.0283470         2.40102781E-11
   24.1551399         7.00104991E-12
   24.2819328        -1.36205500E-11
   24.4087238        -3.73101550E-11
   24.5355167        -6.32631794E-11
   24.6623096        -9.04196093E-11
   24.7891026        -1.17483065E-10
   24.9158955        -1.42955939E-10
   25.0426884        -1.65189126E-10
   25.1694813        -1.82447779E-10
   25.2962742        -1.92989805E-10
   25.4230652        -1.95154878E-10
   25.5498581        -1.87461685E-10
   25.6766510        -1.68707881E-10
   25.8034439        -1.38069237E-10
   25.9302368        -9.51925413E-11
   26.0570297        -4.02773266E-11
   26.1838226         2.58584976E-11
   26.3106136         1.01733920E-10
   26.4374065         1.85185256E-10
   26.5641994         2.73375406E-10
   26.6909924         3.62834707E-10
   26.8177853         4.49535797E-10
   26.9445782         5.29002064E-10
   27.0713711         5.96452387E-10
   27.1981640         6.46975029E-10
   27.3249550         6.75733525E-10
   27.4517479         6.78193557E-10
   27.5785408         6.50369092E-10
   27.7053337         5.89072680E-10
   27.8321266         4.92165420E-10
   27.9589195         3.58792218E-10
   28.0857124         1.89587304E-10
   28.2125034        -1.31589305E-11
   28.3392963        -2.45388126E-10
   28.4660892        -5.01227337E-10
   28.5928822        -7.73018594E-10
   28.7196751        -1.05143161E-09
   28.8464680        -1.32566580E-09
   28.9732609        -1.58374047E-09
   29.1000538        -1.81286886E-09
   29.2268448        -1.99991113E-09
   29.3536377        -2.13189155E-09
   29.4804306        -2.19656915E-09
   29.6072235        -2.18302132E-09
   29.7340164        -2.08225015E-09
   29.8608093        -1.88774862E-09
   29.9876022        -1.59602698E-09
   30.1143932        -1.20705823E-09
   30.2411861        -7.24615090E-10
   30.3679790        -1.56482688E-10
   30.4947720         4.85476104E-10
   30.6215649         1.18542209E-09
   30.7483578         1.92380667E-09
   30.8751507         2.67780575E-09
   31.0019417         3.42191941E-09
   31.1287346         4.12871470E-09
   31.2555275         4.76969930E-09
   31.3823204         5.31626965E-09
   31.5091133         5.74074033E-09
   31.6359062         6.01738304E-09
   31.7626991         6.12344397E-09
   31.8894920         6.04011330E-09
   32.0162849         5.75338799E-09
   32.1430779         5.25480637E-09
   32.2698708         4.54202898E-09
   32.3966637         3.61922869E-09
   32.5234528         2.49729326E-09
   32.6502457         1.19381849E-09
   32.7770386        -2.67094347E-10
   32.9038315        -1.85524596E-09
   33.0306244        -3.53491392E-09
   33.1574173        -5.26560751E-09
   33.2842102        -7.00294400E-09
   33.4110031        -8.69966055E-09
   33.5377960        -1.03066844E-08
   33.6645889        -1.17743149E-08
   33.7913818        -1.30533957E-08
   33.9181747        -1.40965577E-08
   34.0449677        -1.48593902E-08
   34.1717606        -1.53016746E-08
   34.2985535        -1.53885207E-08
   34.4253426        -1.50914516E-08
   34.5521355        -1.43894514E-08
   34.6789284        -1.32698643E-08
   34.8057213        -1.17292274E-08
   34.9325142        -9.77392034E-09
   35.0593071        -7.42068362E-09
   35.1861000        -4.69690464E-09
   35.3128929        -1.64071734E-09
   35.4396858         1.69918191E-09
   35.5664787         5.26397459E-09
   35.6932716         8.98546748E-09
   35.8200645         1.27871589E-08
   35.9468575         1.65855845E-08
   36.0736504         2.02919939E-08
   36.2004433         2.38143176E-08
   36.3272324         2.70593628E-08
   36.4540253         2.99352223E-08
   36.5808182         3.23538494E-08
   36.7076111         3.42336328E-08
   36.8344040         3.55020973E-08
   36.9611969         3.60983492E-08
   37.0879898         3.59754786E-08
   37.2147827         3.51026053E-08
   37.3415756         3.34665877E-08
   37.4683685         3.10733022E-08
   37.5951614         2.79483956E-08
   37.7219543         2.41374440E-08
   37.8487473         1.97055936E-08
   37.9755402         1.47364299E-08
   38.1023293         9.33035693E-09
   38.2291222         3.60225605E-09
   38.3559151        -2.32137598E-09
   38.4827080        -8.30581826E-09
   38.6095009        -1.42119170E-08
   38.7362938        -1.99002645E-08
   38.8630867        -2.52354830E-08
   38.9898796        -3.00907104E-08
   39.1166725        -3.43519702E-08
   39.2434654        -3.79223053E-08
   39.3702583        -4.07256451E-08
   39.4970512        -4.27101980E-08
   39.6238441        -4.38511805E-08
   39.7506371        -4.41528343E-08
   39.8774300        -4.36496670E-08
   40.0042191        -4.24067359E-08
   40.1310120        -4.05189340E-08
   40.2578049        -3.81093130E-08
   40.3845978        -3.53262983E-08
   40.5113907        -3.23399547E-08
   40.6381836        -2.93371336E-08
   40.7649765        -2.65158189E-08
   40.8917694        -2.40785365E-08
   41.0185623        -2.22251497E-08
   41.1453552        -2.11448690E-08
   41.2721481        -2.10081055E-08
   41.3989410        -2.19578897E-08
   41.5257339        -2.41014302E-08
   41.6525269        -2.75017484E-08
   41.7793198        -3.21698188E-08
   41.9061089        -3.80574150E-08
   42.0329018        -4.50508360E-08
   42.1596947        -5.29658735E-08
   42.2864876        -6.15440712E-08
   42.4132805        -7.04509091E-08
   42.5400734        -7.92754875E-08
   42.6668663        -8.75325199E-08
   42.7936592        -9.46663050E-08
   42.9204521        -1.00057086E-07
   43.0472450        -1.03029642E-07
   43.1740379        -1.02864178E-07
   43.3008308        -9.88093021E-08
   43.4276237        -9.00971742E-08
   43.5544167        -7.59602443E-08
   43.6812096        -5.56496644E-08
   43.8079987        -2.84544903E-08
   43.9347916         6.27817620E-09
   44.0615845         4.91231020E-08
   44.1883774         1.00557266E-07
   44.3151703         1.60940957E-07
   44.4419632         2.30500746E-07
   44.5687561         3.09314174E-07
   44.6955490         3.97297555E-07
   44.8223419         4.94196456E-07
   44.9491348         5.99579550E-07
   45.0759277         7.12836652E-07
   45.2027206         8.33180252E-07
   45.3295135         9.59651402E-07
   45.4563065         1.09112932E-06
   45.5830994         1.22634458E-06
   45.7098885         1.36389565E-06
   45.8366814         1.50226856E-06
   45.9634743         1.63985931E-06
   46.0902672         1.77499658E-06
   46.2170601         1.90596836E-06
   46.3438530         2.03104605E-06
   46.4706459         2.14851070E-06
   46.5974388         2.25667827E-06
   46.7242317         2.35392190E-06
   46.8510246         2.43869613E-06
   46.9778175         2.50955577E-06
   47.1046104         2.56517410E-06
   47.2314034         2.60436104E-06
   47.3581963         2.62607455E-06
   47.4849892         2.62943604E-06
   47.6117783         2.61373748E-06
   47.7385712         2.57845181E-06
   47.8653641         2.52324298E-06
   47.9921570         2.44796638E-06
   48.1189499         2.35268203E-06
   48.2457428         2.23764869E-06
   48.3725357         2.10333633E-06
   48.4993286         1.95042549E-06
   48.6261215         1.77980360E-06
   48.7529144         1.59256626E-06
   48.8797073         1.39001509E-06
   49.0065002         1.17364607E-06
   49.1332932         9.45142006E-07
   49.2600861         7.06355422E-07
   49.3868790         4.59286980E-07
   49.5136681         2.06062396E-07
   49.6404610        -5.11001268E-08
   49.7672539        -3.09926065E-07
   49.8940468        -5.68132464E-07
   50.0208397        -8.23468440E-07
   50.1476326        -1.07377446E-06
   50.2744255        -1.31703916E-06
   50.4012184        -1.55145460E-06
   50.5280113        -1.77548202E-06
   50.6548042        -1.98790804E-06
   50.7815971        -2.18790547E-06
   50.9083900        -2.37508539E-06
   51.0351830        -2.54954125E-06
   51.1619759        -2.71189060E-06
   51.2887688        -2.86329805E-06
   51.4155579        -3.00548550E-06
   51.5423508        -3.14074032E-06
   51.6691437        -3.27188695E-06
   51.7959366        -3.40225620E-06
   51.9227295        -3.53563360E-06
   52.0495224        -3.67618577E-06
   52.1763153        -3.82837607E-06
   52.3031082        -3.99685268E-06
   52.4299011        -4.18633726E-06
   52.5566940        -4.40148870E-06
   52.6834869        -4.64676214E-06
   52.8102798        -4.92625986E-06
   52.9370728        -5.24358120E-06
   53.0638657        -5.60168019E-06
   53.1906586        -6.00271278E-06
   53.3174477        -6.44790634E-06
   53.4442406        -6.93745505E-06
   53.5710335        -7.47040031E-06
   53.6978264        -8.04458159E-06
   53.8246193        -8.65655784E-06
   53.9514122        -9.30163060E-06
   54.0782051        -9.97382631E-06
   54.2049980        -1.06659600E-05
   54.3317909        -1.13697224E-05
   54.4585838        -1.20758095E-05
   54.5853767        -1.27740577E-05
   54.7121696        -1.34536385E-05
   54.8389626        -1.41032888E-05
   54.9657555        -1.47115215E-05
   55.0925484        -1.52669199E-05
   55.2193375        -1.57583636E-05
   55.3461304        -1.61753560E-05
   55.4729233        -1.65082747E-05
   55.5997162        -1.67486487E-05
   55.7265091        -1.68894239E-05
   55.8533020        -1.69251998E-05
   55.9800949        -1.68524366E-05
   56.1068878        -1.66696336E-05
   56.2336807        -1.63774839E-05
   56.3604736        -1.59789433E-05
   56.4872665        -1.54793124E-05
   56.6140594        -1.48862027E-05
   56.7408524        -1.42095168E-05
   56.8676453        -1.34613292E-05
   56.9944382        -1.26557425E-05
   57.1212273        -1.18086855E-05
   57.2480202        -1.09376715E-05
   57.3748131        -1.00615189E-05
   57.5016060        -9.20002822E-06
   57.6283989        -8.37363496E-06
   57.7551918        -7.60304283E-06
   57.8819847        -6.90883644E-06
   58.0087776        -6.31108196E-06
   58.1355705        -5.82894063E-06
   58.2623634        -5.48026537E-06
   58.3891563        -5.28123701E-06
   58.5159492        -5.24600000E-06
   58.6427422        -5.38633412E-06
   58.7695351        -5.71136025E-06
   58.8963280        -6.22728476E-06
   59.0231171        -6.93718812E-06
   59.1499100        -7.84086569E-06
   59.2767029        -8.93471315E-06
   59.4034958        -1.02116883E-05
   59.5302887        -1.16613155E-05
   59.6570816        -1.32697496E-05
   59.7838745        -1.50199266E-05
   59.9106674        -1.68917413E-05
   60.0374603        -1.88623217E-05
   60.1642532        -2.09063419E-05
   60.2910461        -2.29963698E-05
   60.4178391        -2.51033307E-05
   60.5446320        -2.71969293E-05
   60.6714249        -2.92461991E-05
   60.7982178        -3.12199918E-05
   60.9250069        -3.30875773E-05
   61.0517998        -3.48191570E-05
   61.1785927        -3.63864783E-05
   61.3053856        -3.77633478E-05
   61.4321785        -3.89261768E-05
   61.5589714        -3.98544689E-05
   61.6857643        -4.05312567E-05
   61.8125572        -4.09434833E-05
   61.9393501        -4.10823159E-05
   62.0661430        -4.09433887E-05
   62.1929359        -4.05269275E-05
   62.3197289        -3.98378179E-05
   62.4465218        -3.88855588E-05
   62.5733147        -3.76841090E-05
   62.7001076        -3.62516803E-05
   62.8268967        -3.46103916E-05
   62.9536896        -3.27858579E-05
   63.0804825        -3.08067210E-05
   63.2072754        -2.87040912E-05
   63.3340683        -2.65109611E-05
   63.4608612        -2.42615715E-05
   63.5876541        -2.19907724E-05
   63.7144470        -1.97333575E-05
   63.8412399        -1.75234600E-05
   63.9680328        -1.53939327E-05
   64.0948257        -1.33757922E-05
   64.2216187        -1.14977593E-05
   64.3484116        -9.78579919E-06
   64.4752045        -8.26281121E-06
   64.6019974        -6.94836126E-06
   64.7287903        -5.85853331E-06
   64.8555832        -5.00584156E-06
   64.9823761        -4.39924315E-06
   65.1091690        -4.04422735E-06
   65.2359619        -3.94297422E-06
   65.3627548        -4.09456106E-06
   65.4895477        -4.49522486E-06
   65.6163330        -5.13864779E-06
   65.7431259        -6.01625879E-06
   65.8699188        -7.11754365E-06
   65.9967117        -8.43033285E-06
   66.1235046        -9.94106722E-06
   66.2502975        -1.16350448E-05
   66.3770905        -1.34965876E-05
   66.5038834        -1.55092275E-05
   66.6306763        -1.76557569E-05
   66.7574692        -1.99183232E-05
   66.8842621        -2.22784220E-05
   67.0110550        -2.47168664E-05
   67.1378479        -2.72137495E-05
   67.2646408        -2.97483930E-05
   67.3914337        -3.22992455E-05
   67.5182266        -3.48438916E-05
   67.6450195        -3.73589610E-05
   67.7718124        -3.98201919E-05
   67.8986053        -4.22024932E-05
   68.0253983        -4.44800207E-05
   68.1521912        -4.66264246E-05
   68.2789841        -4.86150457E-05
   68.4057770        -5.04192867E-05
   68.5325699        -5.20129761E-05
   68.6593628        -5.33707826E-05
   68.7861557        -5.44687791E-05
   68.9129486        -5.52848796E-05
   69.0397415        -5.57994535E-05
   69.1665344        -5.59958025E-05
   69.2933273        -5.58607317E-05
   69.4201126        -5.53850005E-05
   69.5469055        -5.45637085E-05
   69.6736984        -5.33967323E-05
   69.8004913        -5.18888846E-05
   69.9272842        -5.00501155E-05
   70.0540771        -4.78954644E-05
   70.1808701        -4.54450637E-05
   70.3076630        -4.27238192E-05
   70.4344559        -3.97611075E-05
   70.5612488        -3.65903215E-05
   70.6880417        -3.32482596E-05
   70.8148346        -2.97744773E-05
   70.9416275        -2.62105696E-05
   71.0684204        -2.25993390E-05
   71.1952133        -1.89839957E-05
   71.3220062        -1.54073441E-05
   71.4487991        -1.19109491E-05
   71.5755920        -8.53437632E-06
   71.7023849        -5.31450132E-06
   71.8291779        -2.28487829E-06
   71.9559708         5.24751613E-07
   72.0827637         3.08888229E-06
   72.2095566         5.38647691E-06
   72.3363495         7.40114137E-06
   72.4631424         9.12109317E-06
   72.5899353         1.05390536E-05
   72.7167282         1.16519823E-05
   72.8435211         1.24607286E-05
   72.9703140         1.29695854E-05
   73.0971069         1.31857432E-05
   73.2238922         1.31187326E-05
   73.3506851         1.27798003E-05
   73.4774780         1.21813182E-05
   73.6042709         1.13361493E-05
   73.7310638         1.02571439E-05
   73.8578568         8.95659014E-06
   73.9846497         7.44583258E-06
   74.1114426         5.73492844E-06
   74.2382355         3.83242923E-06
   74.3650284         1.74525496E-06
   74.4918213        -5.21291611E-07
   74.6186142        -2.96344228E-06
   74.7454071        -5.57875001E-06
   74.8722000        -8.36578238E-06
   74.9989929        -1.13237647E-05
   75.1257858        -1.44521264E-05
   75.2525787        -1.77500388E-05
   75.3793716        -2.12158957E-05
   75.5061646        -2.48468514E-05
   75.6329575        -2.86382801E-05
   75.7597504        -3.25833898E-05
   75.8865433        -3.66728163E-05
   76.0133362        -4.08943088E-05
   76.1401291        -4.52325075E-05
   76.2669220        -4.96688444E-05
   76.3937149        -5.41814734E-05
   76.5205078        -5.87453433E-05
   76.6473007        -6.33324962E-05
   76.7740936        -6.79121731E-05
   76.9008865        -7.24513447E-05
   77.0276718        -7.69150356E-05
   77.1544647        -8.12669387E-05
   77.2812576        -8.54699028E-05
   77.4080505        -8.94866098E-05
   77.5348434        -9.32801195E-05
   77.6616364        -9.68145177E-05
   77.7884293        -1.00055448E-04
   77.9152222        -1.02970771E-04
   78.0420151        -1.05530882E-04
   78.1688080        -1.07709384E-04
   78.2956009        -1.09483211E-04
   78.4223938        -1.10833040E-04
   78.5491867        -1.11743364E-04
   78.6759796        -1.12202695E-04
   78.8027725        -1.12203445E-04
   78.9295654        -1.11741909E-04
   79.0563583        -1.10818051E-04
   79.1831512        -1.09435314E-04
   79.3099442        -1.07600186E-04
   79.4367371        -1.05321997E-04
   79.5635300        -1.02612445E-04
   79.6903229        -9.94851362E-05
   79.8171158        -9.59552199E-05
   79.9439087        -9.20389866E-05
   80.0707016        -8.77533894E-05
   80.1974945        -8.31157668E-05
   80.3242874        -7.81434355E-05
   80.4510803        -7.28534942E-05
   80.5778732        -6.72625611E-05
   80.7046585        -6.13866941E-05
   80.8314514        -5.52412821E-05
   80.9582443        -4.88410224E-05
   81.0850372        -4.22000739E-05
   81.2118301        -3.53321047E-05
   81.3386230        -2.82505152E-05
   81.4654160        -2.09687005E-05
   81.5922089        -1.35002783E-05
   81.7190018        -5.85939142E-06
   81.8457947         1.93896267E-06
   81.9725876         9.87866497E-06
   82.0993805         1.79421768E-05
   82.2261734         2.61102905E-05
   82.3529663         3.43619286E-05
   82.4797592         4.26740262E-05
   82.6065521         5.10213904E-05
   82.7333450         5.93767181E-05
   82.8601379         6.77106873E-05
   82.9869308         7.59920658E-05
   83.1137238         8.41879737E-05
   83.2405167         9.22641702E-05
   83.3673096         1.00185440E-04
   83.4941025         1.07916043E-04
   83.6208954         1.15420131E-04
   83.7476883         1.22662328E-04
   83.8744812         1.29608365E-04
   84.0012741         1.36225513E-04
   84.1280670         1.42483099E-04
   84.2548599         1.48353167E-04
   84.3816528         1.53810892E-04
   84.5084381         1.58835028E-04
   84.6352310         1.63408229E-04
   84.7620239         1.67517443E-04
   84.8888168         1.71153879E-04
   85.0156097         1.74313449E-04
   85.1424026         1.76996560E-04
   85.2691956         1.79207986E-04
   85.3959885         1.80956835E-04
   85.5227814         1.82256175E-04
   85.6495743         1.83122800E-04
   85.7763672         1.83576703E-04
   85.9031601         1.83640674E-04
   86.0299530         1.83339784E-04
   86.1567459         1.82700838E-04
   86.2835388         1.81751835E-04
   86.4103317         1.80521572E-04
   86.5371246         1.79038921E-04
   86.6639175         1.77332622E-04
   86.7907104         1.75430745E-04
   86.9175034         1.73360415E-04
   87.0442963         1.71147447E-04
   87.1710892         1.68816347E-04
   87.2978821         1.66390149E-04
   87.4246750         1.63890363E-04
   87.5514679         1.61337055E-04
   87.6782608         1.58748880E-04
   87.8050537         1.56143491E-04
   87.9318466         1.53537476E-04
   88.0586395         1.50946755E-04
   88.1854324         1.48386796E-04
   88.3122177         1.45872793E-04
   88.4390106         1.43419908E-04
   88.5658035         1.41043449E-04
   88.6925964         1.38758958E-04
   88.8193893         1.36582239E-04
   88.9461823         1.34529429E-04
   89.0729752         1.32616813E-04
   89.1997681         1.30860557E-04
   89.3265610         1.29276668E-04
   89.4533539         1.27880485E-04
   89.5801468         1.26686413E-04
   89.7069397         1.25707375E-04
   89.8337326         1.24954502E-04
   89.9605255         1.24436614E-04
   90.0873184         1.24159735E-04
   90.2141113         1.24126687E-04
   90.3409042         1.24336686E-04
   90.4676971         1.24785074E-04
   90.5944901         1.25463106E-04
   90.7212830         1.26357656E-04
   90.8480759         1.27451349E-04
   90.9748688         1.28722575E-04
   91.1016617         1.30145680E-04
   91.2284546         1.31691282E-04
   91.3552475         1.33326757E-04
   91.4820404         1.35016642E-04
   91.6088333         1.36723393E-04
   91.7356262         1.38407981E-04
   91.8624191         1.40030781E-04
   91.9892120         1.41552257E-04
   92.1159973         1.42933830E-04
   92.2427902         1.44138685E-04
   92.3695831         1.45132581E-04
   92.4963760         1.45884551E-04
   92.6231689         1.46367631E-04
   92.7499619         1.46559338E-04
   92.8767548         1.46442209E-04
   93.0035477         1.46004168E-04
   93.1303406         1.45238693E-04
   93.2571335         1.44144928E-04
   93.3839264         1.42727629E-04
   93.5107193         1.40996985E-04
   93.6375122         1.38968360E-04
   93.7643051         1.36661722E-04
   93.8910980         1.34101327E-04
   94.0178909         1.31314970E-04
   94.1446838         1.28333311E-04
   94.2714767         1.25189195E-04
   94.3982697         1.21916775E-04
   94.5250626         1.18550961E-04
   94.6518555         1.15126393E-04
   94.7786484         1.11676825E-04
   94.9054413         1.08234439E-04
   95.0322342         1.04829131E-04
   95.1590271         1.01487967E-04
   95.2858200         9.82347192E-05
   95.4126129         9.50893664E-05
   95.5394058         9.20677994E-05
   95.6661987         8.91816671E-05
   95.7929916         8.64380781E-05
   95.9197769         8.38396227E-05
   96.0465698         8.13844454E-05
   96.1733627         7.90661870E-05
   96.3001556         7.68743412E-05
   96.4269485         7.47943632E-05
   96.5537415         7.28079685E-05
   96.6805344         7.08935768E-05
   96.8073273         6.90265661E-05
   96.9341202         6.71798116E-05
   97.0609131         6.53241150E-05
   97.1877060         6.34286262E-05
   97.3144989         6.14615055E-05
   97.4412918         5.93903351E-05
   97.5680847         5.71827404E-05
   97.6948776         5.48069838E-05
   97.8216705         5.22324990E-05
   97.9484634         4.94305241E-05
   98.0752563         4.63746946E-05