  -4.50000000         0.00000000    
  -4.37320757         0.00000000    
  -4.24641466         0.00000000    
  -4.11962223         0.00000000    
  -3.99282932         0.00000000    
  -3.86603665         0.00000000    
  -3.73924398         0.00000000    
  -3.61245155         6.17940218E-32
  -3.48565888         1.80417337E-30
  -3.35886621        -1.07181605E-29
  -3.23207355        -1.33378942E-28
  -3.10528088        -1.02022807E-27
  -2.97848821        -5.23570681E-27
  -2.85169554        -1.95766634E-26
  -2.72490287        -5.53462901E-26
  -2.59811020        -1.16248688E-25
  -2.47131753        -1.55101061E-25
  -2.34452486         1.52416201E-26
  -2.21773219         8.30191202E-25
  -2.09093952         2.98077838E-24
  -1.96414697         7.09005936E-24
  -1.83735430         1.28341358E-23
  -1.71056163         1.76142432E-23
  -1.58376896         1.56808493E-23
  -1.45697629        -3.53741895E-25
  -1.33018374        -3.32646583E-23
  -1.20339108        -6.95187270E-23
  -1.07659841        -6.63467615E-23
 -0.949805737         5.05426748E-23
 -0.823013067         3.60271867E-22
 -0.696220458         8.75130936E-22
 -0.569427788         1.42761781E-21
 -0.442635119         1.55988906E-21
 -0.315842479         5.09237306E-22
 -0.189049825        -2.58561372E-21
  -6.22571707E-02    -8.16180322E-21
   6.45354837E-02    -1.54227017E-20
  0.191328138        -2.14914157E-20
  0.318120778        -2.10296987E-20
  0.444913447        -6.97500503E-21
  0.571706116         2.70719558E-20
  0.698498726         8.27937547E-20
  0.825291395         1.52319545E-19
  0.952084064         2.14527638E-19
   1.07887673         2.35128080E-19
   1.20566940         1.73000650E-19
   1.33246195        -6.22762513E-21
   1.45925462        -3.11203363E-19
   1.58604729        -7.05823032E-19
   1.71283996        -1.09844229E-18
   1.83963263        -1.34824526E-18
   1.96642530        -1.29467838E-18
   2.09321785        -8.08774862E-19
   2.22001052         1.44598331E-19
   2.34680319         1.45393195E-18
   2.47359586         2.84260762E-18
   2.60038853         3.90535087E-18
   2.72718120         4.20504792E-18
   2.85397387         3.41175958E-18
   2.98076653         1.44063016E-18
   3.10755920        -1.47051506E-18
   3.23435187        -4.79878410E-18
   3.36114454        -7.91286185E-18
   3.48793697        -1.03571921E-17
   3.61472964        -1.21473045E-17
   3.74152231        -1.39298390E-17
   3.86831498        -1.68546239E-17
   3.99510765        -2.20648327E-17
   4.12190056        -2.98384892E-17
   4.24869299        -3.85855933E-17
   4.37548542        -4.40695592E-17
   4.50227833        -3.93097337E-17
   4.62907076        -1.55698585E-17
   4.75586367         3.53916670E-17
   4.88265610         1.18020502E-16
   5.00944901         2.29291951E-16
   5.13624144         3.55748782E-16
   5.26303434         4.72532629E-16
   5.38982677         5.45534534E-16
   5.51661968         5.37227841E-16
   5.64341211         4.15838305E-16
   5.77020502         1.66418853E-16
   5.89699745        -1.98571151E-16
   6.02379036        -6.32153394E-16
   6.15058279        -1.05205547E-15
   6.27737522        -1.34828195E-15
   6.40416813        -1.39948298E-15
   6.53096056        -1.09662253E-15
   6.65775347        -3.70481041E-16
   6.78454590         7.81950006E-16
   6.91133881         2.27774508E-15
   7.03813124         3.94014951E-15
   7.16492414         5.50618214E-15
   7.29171658         6.65116613E-15
   7.41850948         7.02895468E-15
   7.54530191         6.32404878E-15
   7.67209482         4.30965451E-15
   7.79888725         9.04315138E-16
   7.92567968        -3.78085692E-15
   8.05247211        -9.41212423E-15
   8.17926502        -1.54270619E-14
   8.30605793        -2.10577727E-14
   8.43285084        -2.53864329E-14
   8.55964279        -2.74332355E-14
   8.68643570        -2.62733798E-14
   8.81322861        -2.11754900E-14
   8.94002151        -1.17494498E-14
   9.06681347         1.91282338E-15
   9.19360638         1.91233832E-14
   9.32039928         3.85328908E-14
   9.44719219         5.81351238E-14
   9.57398415         7.53591932E-14
   9.70077705         8.72607040E-14
   9.82756996         9.08130721E-14
   9.95436192         8.32882821E-14
   10.0811548         6.27017223E-14
   10.2079477         2.82816034E-14
   10.3347406        -1.90898458E-14
   10.4615326        -7.65256931E-14
   10.5883255        -1.38942243E-13
   10.7151184        -1.99090053E-13
   10.8419113        -2.47863985E-13
   10.9687033        -2.74926566E-13
   11.0954962        -2.69652844E-13
   11.2222891        -2.22367318E-13
   11.3490820        -1.25805602E-13
   11.4758739         2.33096979E-14
   11.6026669         2.22725552E-13
   11.7294598         4.63323932E-13
   11.8562517         7.28189210E-13
   11.9830446         9.92272345E-13
   12.1098375         1.22282501E-12
   12.2366304         1.38074556E-12
   12.3634224         1.42291766E-12
   12.4902153         1.30553977E-12
   12.6170082         9.88378867E-13
   12.7438011         4.39748878E-13
   12.8705931        -3.58064733E-13
   12.9973860        -1.40332060E-12
   13.1241789        -2.66976241E-12
   13.2509708        -4.10253168E-12
   13.3777637        -5.61562992E-12
   13.5045567        -7.09152528E-12
   13.6313496        -8.38342243E-12
   13.7581415        -9.32060332E-12
   13.8849344        -9.71711687E-12
   14.0117273        -9.38377327E-12
   14.1385202        -8.14321180E-12
   14.2653122        -5.84744623E-12
   14.3921051        -2.39694549E-12
   14.5188980         2.23999920E-12
   14.6456909         8.00914803E-12
   14.7724829         1.47551901E-11
   14.8992758         2.22114653E-11
   15.0260687         2.99963387E-11
   15.1528606         3.76178672E-11
   15.2796535         4.44879238E-11
   15.4064465         4.99465608E-11
   15.5332394         5.32964575E-11
   15.6600313         5.38467708E-11
   15.7868242         5.09644722E-11
   15.9136171         4.41306262E-11
   16.0404091         3.29981598E-11
   16.1672020         1.74469519E-11
   16.2939949        -2.36824102E-12
   16.4207878        -2.59817411E-11
   16.5475807        -5.25971593E-11
   16.6743736        -8.10876991E-11
   16.8011646        -1.10019556E-10
   16.9279575        -1.37699574E-10
   17.0547504        -1.62247660E-10
   17.1815434        -1.81691565E-10
   17.3083363        -1.94081001E-10
   17.4351292        -1.97614938E-10
   17.5619221        -1.90775951E-10
   17.6887150        -1.72462711E-10
   17.8155060        -1.42111753E-10
   17.9422989        -9.97994118E-11
   18.0690918        -4.63147957E-11
   18.1958847         1.68041778E-11
   18.3226776         8.72782263E-11
   18.4494705         1.62141023E-10
   18.5762634         2.37842773E-10
   18.7030544         3.10400622E-10
   18.8298473         3.75591142E-10
   18.9566402         4.29176888E-10
   19.0834332         4.67155425E-10
   19.2102261         4.86017282E-10
   19.3370190         4.82997697E-10
   19.4638119         4.56304494E-10
   19.5906048         4.05307399E-10
   19.7173958         3.30671684E-10
   19.8441887         2.34425396E-10
   19.9709816         1.19948315E-10
   20.0977745        -8.12048866E-12
   20.2245674        -1.44059181E-10
   20.3513603        -2.81317525E-10
   20.4781532        -4.12840151E-10
   20.6049442        -5.31443223E-10
   20.7317371        -6.30225261E-10
   20.8585300        -7.02990277E-10
   20.9853230        -7.44654671E-10
   21.1121159        -7.51617102E-10
   21.2389088        -7.22059579E-10
   21.3657017        -6.56159183E-10
   21.4924946        -5.56192148E-10
   21.6192856        -4.26515601E-10
   21.7460785        -2.73416900E-10
   21.8728714        -1.04834821E-10
   21.9996643         7.00391273E-11
   22.1264572         2.41262538E-10
   22.2532501         3.98721500E-10
   22.3800430         5.32755673E-10
   22.5068340         6.34787722E-10
   22.6336269         6.97926217E-10
   22.7604198         7.17485460E-10
   22.8872128         6.91398494E-10
   23.0140057         6.20480223E-10
   23.1407986         5.08510289E-10
   23.2675915         3.62128577E-10
   23.3943844         1.90530869E-10
   23.5211754         4.96850217E-12
   23.6479683        -1.81916676E-10
   23.7747612        -3.56893348E-10
   23.9015541        -5.07037523E-10
   24.0283470        -6.20657137E-10
   24.1551399        -6.88189172E-10
   24.2819328        -7.03004377E-10
   24.4087238        -6.62052024E-10
   24.5355167        -5.66283853E-10
   24.6623096        -4.20820906E-10
   24.7891026        -2.34822134E-10
   24.9158955        -2.10269198E-11
   25.0426884         2.04985126E-10
   25.1694813         4.25830371E-10
   25.2962742         6.23571361E-10
   25.4230652         7.81128440E-10
   25.5498581         8.83748130E-10
   25.6766510         9.20441445E-10
   25.8034439         8.85268581E-10
   25.9302368         7.78371867E-10
   26.0570297         6.06646178E-10
   26.1838226         3.83961446E-10
   26.3106136         1.30876296E-10
   26.4374065        -1.26191127E-10
   26.5641994        -3.56361829E-10
   26.6909924        -5.26187260E-10
   26.8177853        -6.02003836E-10
   26.9445782        -5.52589141E-10
   27.0713711        -3.52076313E-10
   27.1981640         1.72175503E-11
   27.3249550         5.62060398E-10
   27.4517479         1.27600130E-09
   27.5785408         2.13758811E-09
   27.7053337         3.10946136E-09
   27.8321266         4.13826484E-09
   27.9589195         5.15567411E-09
   28.0857124         6.08052675E-09
   28.2125034         6.82207091E-09
   28.3392963         7.28428473E-09
   28.4660892         7.37114192E-09
   28.5928822         6.99258029E-09
   28.7196751         6.07099349E-09
   28.8464680         4.54779192E-09
   28.9732609         2.38980746E-09
   29.1000538        -4.04982048E-10
   29.2268448        -3.80267329E-09
   29.3536377        -7.73014808E-09
   29.4804306        -1.20734569E-08
   29.6072235        -1.66783405E-08
   29.7340164        -2.13528750E-08
   29.8608093        -2.58725521E-08
   29.9876022        -2.99876035E-08
   30.1143932        -3.34325101E-08
   30.2411861        -3.59374539E-08
   30.3679790        -3.72411932E-08
   30.4947720        -3.71049715E-08
   30.6215649        -3.53267779E-08
   30.7483578        -3.17553095E-08
   30.8751507        -2.63028941E-08
   31.0019417        -1.89566691E-08
   31.1287346        -9.78734604E-09
   31.2555275         1.04518627E-09
   31.3823204         1.32898164E-08
   31.5091133         2.66061182E-08
   31.6359062         4.05705229E-08
   31.7626991         5.46868435E-08
   31.8894920         6.84007446E-08
   32.0162849         8.11181522E-08
   32.1430779         9.22265500E-08
   32.2698708         1.01119163E-07
   32.3966637         1.07220295E-07
   32.5234528         1.10011449E-07
   32.6502457         1.09056820E-07
   32.7770386         1.04027080E-07
   32.9038315         9.47204555E-08
   33.0306244         8.10797331E-08
   33.1574173         6.32047943E-08
   33.2842102         4.13593852E-08
   33.4110031         1.59718585E-08
   33.5377960        -1.23704140E-08
   33.6645889        -4.29332374E-08
   33.7913818        -7.48538511E-08
   33.9181747        -1.07165015E-07
   34.0449677        -1.38824149E-07
   34.1717606        -1.68746297E-07
   34.2985535        -1.95840173E-07
   34.4253426        -2.19045404E-07
   34.5521355        -2.37370358E-07
   34.6789284        -2.49927893E-07
   34.8057213        -2.55969297E-07
   34.9325142        -2.54913516E-07
   35.0593071        -2.46371400E-07
   35.1861000        -2.30163877E-07
   35.3128929        -2.06333326E-07
   35.4396858        -1.75147733E-07
   35.5664787        -1.37097274E-07
   35.6932716        -9.28840791E-08
   35.8200645        -4.34051231E-08
   35.9468575         1.02710125E-08
   36.0736504         6.69323157E-08
   36.2004433         1.25255426E-07
   36.3272324         1.83840669E-07
   36.4540253         2.41248387E-07
   36.5808182         2.96035608E-07
   36.7076111         3.46791865E-07
   36.8344040         3.92172524E-07
   36.9611969         4.30929674E-07
   37.0879898         4.61939351E-07
   37.2147827         4.84224017E-07
   37.3415756         4.96971552E-07
   37.4683685         4.99548605E-07
   37.5951614         4.91511571E-07
   37.7219543         4.72611248E-07
   37.8487473         4.42795994E-07
   37.9755402         4.02211185E-07
   38.1023293         3.51196064E-07
   38.2291222         2.90279928E-07
   38.3559151         2.20175437E-07
   38.4827080         1.41772787E-07
   38.6095009         5.61317854E-08
   38.7362938        -3.55256802E-08
   38.8630867        -1.31824365E-07
   38.9898796        -2.31245025E-07
   39.1166725        -3.32135443E-07
   39.2434654        -4.32723112E-07
   39.3702583        -5.31130581E-07
   39.4970512        -6.25393568E-07
   39.6238441        -7.13483473E-07
   39.7506371        -7.93333129E-07
   39.8774300        -8.62867182E-07
   40.0042191        -9.20037280E-07
   40.1310120        -9.62860099E-07
   40.2578049        -9.89458954E-07
   40.3845978        -9.98109840E-07
   40.5113907        -9.87285375E-07
   40.6381836        -9.55701125E-07
   40.7649765        -9.02357442E-07
   40.8917694        -8.26579708E-07
   41.0185623        -7.28050168E-07
   41.1453552        -6.06833510E-07
   41.2721481        -4.63390137E-07
   41.3989410        -2.98581455E-07
   41.5257339        -1.13659233E-07
   41.6525269         8.97573287E-08
   41.7793198         3.09717961E-07
   41.9061089         5.43990552E-07
   42.0329018         7.90124943E-07
   42.1596947         1.04552441E-06
   42.2864876         1.30752755E-06
   42.4132805         1.57349587E-06
   42.5400734         1.84090209E-06
   42.6668663         2.10741996E-06
   42.7936592         2.37100630E-06
   42.9204521         2.62997924E-06
   43.0472450         2.88307729E-06
   43.1740379         3.12951397E-06
   43.3008308         3.36900325E-06
   43.4276237         3.60177319E-06
   43.5544167         3.82855615E-06
   43.6812096         4.05055880E-06
   43.8079987         4.26940824E-06
   43.9347916         4.48708533E-06
   44.0615845         4.70582836E-06
   44.1883774         4.92804111E-06
   44.3151703         5.15616966E-06
   44.4419632         5.39259099E-06
   44.5687561         5.63948788E-06
   44.6955490         5.89873389E-06
   44.8223419         6.17178148E-06
   44.9491348         6.45956789E-06
   45.0759277         6.76243553E-06
   45.2027206         7.08006837E-06
   45.3295135         7.41146278E-06
   45.4563065         7.75490844E-06
   45.5830994         8.10800884E-06
   45.7098885         8.46772491E-06
   45.8366814         8.83043413E-06
   45.9634743         9.19202648E-06
   46.0902672         9.54800998E-06
   46.2170601         9.89363980E-06
   46.3438530         1.02240483E-05
   46.4706459         1.05344034E-05
   46.5974388         1.08200356E-05
   46.7242317         1.10765877E-05
   46.8510246         1.13001661E-05
   46.9778175         1.14874301E-05
   47.1046104         1.16356941E-05
   47.2314034         1.17430400E-05
   47.3581963         1.18083462E-05
   47.4849892         1.18313219E-05
   47.6117783         1.18125245E-05
   47.7385712         1.17533264E-05
   47.8653641         1.16558913E-05
   47.9921570         1.15230805E-05
   48.1189499         1.13584101E-05
   48.2457428         1.11659092E-05
   48.3725357         1.09500652E-05
   48.4993286         1.07156520E-05
   48.6261215         1.04676492E-05
   48.7529144         1.02111153E-05
   48.8797073         9.95109895E-06
   49.0065002         9.69250050E-06
   49.1332932         9.43998475E-06
   49.2600861         9.19796003E-06
   49.3868790         8.97044629E-06
   49.5136681         8.76107424E-06
   49.6404610         8.57301347E-06
   49.7672539         8.40902612E-06
   49.8940468         8.27139229E-06
   50.0208397         8.16191550E-06
   50.1476326         8.08201639E-06
   50.2744255         8.03264265E-06
   50.4012184         8.01440001E-06
   50.5280113         8.02746399E-06
   50.6548042         8.07171637E-06
   50.7815971         8.14667601E-06
   50.9083900         8.25156167E-06
   51.0351830         8.38526284E-06
   51.1619759         8.54636255E-06
   51.2887688         8.73315548E-06
   51.4155579         8.94359255E-06
   51.5423508         9.17529087E-06
   51.6691437         9.42552288E-06
   51.7959366         9.69120720E-06
   51.9227295         9.96888139E-06
   52.0495224         1.02547137E-05
   52.1763153         1.05445215E-05
   52.3031082         1.08337663E-05
   52.4299011         1.11176141E-05
   52.5566940         1.13909482E-05
   52.6834869         1.16484953E-05
   52.8102798         1.18848184E-05
   52.9370728         1.20945006E-05
   53.0638657         1.22722113E-05
   53.1906586         1.24128255E-05
   53.3174477         1.25115675E-05
   53.4442406         1.25641345E-05
   53.5710335         1.25668494E-05
   53.6978264         1.25167562E-05
   53.8246193         1.24117987E-05
   53.9514122         1.22508673E-05
   54.0782051         1.20339346E-05
   54.2049980         1.17620684E-05
   54.3317909         1.14375862E-05
   54.4585838         1.10639030E-05
   54.5853767         1.06456491E-05
   54.7121696         1.01885626E-05
   54.8389626         9.69942357E-06
   54.9657555         9.18595470E-06
   55.0925484         8.65663878E-06
   55.2193375         8.12064718E-06
   55.3461304         7.58757096E-06
   55.4729233         7.06728406E-06
   55.5997162         6.56971406E-06
   55.7265091         6.10465213E-06
   55.8533020         5.68152427E-06
   55.9800949         5.30923580E-06
   56.1068878         4.99592261E-06
   56.2336807         4.74885792E-06
   56.3604736         4.57424403E-06
   56.4872665         4.47710818E-06
   56.6140594         4.46121794E-06
   56.7408524         4.52900304E-06
   56.8676453         4.68151438E-06
   56.9944382         4.91842093E-06
   57.1212273         5.23800099E-06
   57.2480202         5.63723597E-06
   57.3748131         6.11180894E-06
   57.5016060         6.65625976E-06
   57.6283989         7.26403005E-06
   57.7551918         7.92760056E-06
   57.8819847         8.63864079E-06
   58.0087776         9.38808080E-06
   58.1355705         1.01663327E-05
   58.2623634         1.09633511E-05
   58.3891563         1.17688314E-05
   58.5159492         1.25723045E-05
   58.6427422         1.33632966E-05
   58.7695351         1.41314613E-05
   58.8963280         1.48666850E-05
   59.0231171         1.55592534E-05
   59.1499100         1.61999342E-05
   59.2767029         1.67800899E-05
   59.4034958         1.72918189E-05
   59.5302887         1.77280035E-05
   59.6570816         1.80824973E-05
   59.7838745         1.83501052E-05
   59.9106674         1.85267636E-05
   60.0374603         1.86095531E-05
   60.1642532         1.85967874E-05
   60.2910461         1.84880591E-05
   60.4178391         1.82842432E-05
   60.5446320         1.79875933E-05
   60.6714249         1.76016329E-05
   60.7982178         1.71311585E-05
   60.9250069         1.65822785E-05
   61.0517998         1.59621595E-05
   61.1785927         1.52790817E-05
   61.3053856         1.45422619E-05
   61.4321785         1.37616998E-05
   61.5589714         1.29479922E-05
   61.6857643         1.21122048E-05
   61.8125572         1.12656271E-05
   61.9393501         1.04196197E-05
   62.0661430         9.58538385E-06
   62.1929359         8.77376169E-06
   62.3197289         7.99507507E-06
   62.4465218         7.25891277E-06
   62.5733147         6.57405917E-06
   62.7001076         5.94820176E-06
   62.8268967         5.38799168E-06
   62.9536896         4.89886816E-06
   63.0804825         4.48497667E-06
   63.2072754         4.14930537E-06
   63.3340683         3.89351362E-06
   63.4608612         3.71805208E-06
   63.5876541         3.62224569E-06
   63.7144470         3.60438662E-06
   63.8412399         3.66174731E-06
   63.9680328         3.79085418E-06
   64.0948257         3.98749580E-06
   64.2216187         4.24688369E-06
   64.3484116         4.56384669E-06
   64.4752045         4.93291873E-06
   64.6019974         5.34841956E-06
   64.7287903         5.80463393E-06
   64.8555832         6.29585384E-06
   64.9823761         6.81646225E-06
   65.1091690         7.36099310E-06
   65.2359619         7.92412357E-06
   65.3627548         8.50075321E-06
   65.4895477         9.08597031E-06
   65.6163330         9.67501910E-06
   65.7431259         1.02633267E-05
   65.8699188         1.08464710E-05
   65.9967117         1.14201366E-05
   66.1235046         1.19801316E-05
   66.2502975         1.25223523E-05
   66.3770905         1.30428680E-05
   66.5038834         1.35378532E-05
   66.6306763         1.40037100E-05
   66.7574692         1.44370697E-05
   66.8842621         1.48349445E-05
   67.0110550         1.51947534E-05
   67.1378479         1.55144389E-05
   67.2646408         1.57925697E-05
   67.3914337         1.60284599E-05
   67.5182266         1.62222113E-05
   67.6450195         1.63748246E-05
   67.7718124         1.64881967E-05
   67.8986053         1.65652018E-05
   68.0253983         1.66096397E-05
   68.1521912         1.66261780E-05
   68.2789841         1.66203208E-05
   68.4057770         1.65981837E-05
   68.5325699         1.65664751E-05
   68.6593628         1.65321908E-05
   68.7861557         1.65024467E-05
   68.9129486         1.64842822E-05
   69.0397415         1.64844387E-05
   69.1665344         1.65090005E-05
   69.2933273         1.65633446E-05
   69.4201126         1.66517912E-05
   69.5469055         1.67775815E-05
   69.6736984         1.69426057E-05
   69.8004913         1.71474057E-05
   69.9272842         1.73911285E-05
   70.0540771         1.76715494E-05
   70.1808701         1.79851158E-05
   70.3076630         1.83271441E-05
   70.4344559         1.86918805E-05
   70.5612488         1.90727951E-05
   70.6880417         1.94628428E-05
   70.8148346         1.98546550E-05
   70.9416275         2.02408937E-05
   71.0684204         2.06144887E-05
   71.1952133         2.09688769E-05
   71.3220062         2.12983177E-05
   71.4487991         2.15980272E-05
   71.5755920         2.18643854E-05
   71.7023849         2.20949805E-05
   71.8291779         2.22887302E-05
   71.9559708         2.24458381E-05
   72.0827637         2.25676904E-05
   72.2095566         2.26567245E-05
   72.3363495         2.27162673E-05
   72.4631424         2.27502496E-05
   72.5899353         2.27629989E-05
   72.7167282         2.27587861E-05
   72.8435211         2.27417404E-05
   72.9703140         2.27153450E-05
   73.0971069         2.26822249E-05
   73.2238922         2.26439079E-05
   73.3506851         2.26006396E-05
   73.4774780         2.25512013E-05
   73.6042709         2.24928281E-05
   73.7310638         2.24213181E-05
   73.8578568         2.23309744E-05
   73.9846497         2.22149283E-05
   74.1114426         2.20652146E-05
   74.2382355         2.18732093E-05
   74.3650284         2.16298868E-05
   74.4918213         2.13263320E-05
   74.6186142         2.09540394E-05
   74.7454071         2.05054530E-05
   74.8722000         1.99742935E-05
   74.9989929         1.93560736E-05
   75.1257858         1.86483157E-05
   75.2525787         1.78509872E-05
   75.3793716         1.69666127E-05
   75.5061646         1.60004111E-05
   75.6329575         1.49603120E-05
   75.7597504         1.38569721E-05
   75.8865433         1.27035501E-05
   76.0133362         1.15154398E-05
   76.1401291         1.03098846E-05
   76.2669220         9.10567087E-06
   76.3937149         7.92242372E-06
   76.5205078         6.78026663E-06
   76.6473007         5.69914619E-06
   76.7740936         4.69821998E-06
   76.9008865         3.79538233E-06
   77.0276718         3.00657484E-06
   77.1544647         2.34545064E-06
   77.2812576         1.82272254E-06
   77.4080505         1.44608202E-06
   77.5348434         1.21974404E-06
   77.6616364         1.14435011E-06
   77.7884293         1.21696985E-06
   77.9152222         1.43119928E-06
   78.0420151         1.77728191E-06
   78.1688080         2.24250675E-06
   78.2956009         2.81157554E-06
   78.4223938         3.46706474E-06
   78.5491867         4.19021762E-06
   78.6759796         4.96125131E-06
   78.8027725         5.76025741E-06
   78.9295654         6.56788234E-06
   79.0563583         7.36592165E-06
   79.1831512         8.13793486E-06
   79.3099442         8.86994712E-06
   79.4367371         9.55087216E-06
   79.5635300         1.01730002E-05
   79.6903229         1.07321539E-05
   79.8171158         1.12280804E-05
   79.9439087         1.16642414E-05
   80.0707016         1.20479172E-05
   80.1974945         1.23898581E-05
   80.3242874         1.27039202E-05
   80.4510803         1.30066574E-05
   80.5778732         1.33165977E-05
   80.7046585         1.36536619E-05
   80.8314514         1.40383700E-05
   80.9582443         1.44910646E-05
   81.0850372         1.50311616E-05
   81.2118301         1.56762726E-05
   81.3386230         1.64415433E-05
   81.4654160         1.73390745E-05
   81.5922089         1.83772390E-05
   81.7190018         1.95602333E-05
   81.8457947         2.08878973E-05
   81.9725876         2.23554380E-05
   82.0993805         2.39534493E-05
   82.2261734         2.56680578E-05
   82.3529663         2.74812573E-05
   82.4797592         2.93712510E-05
   82.6065521         3.13130804E-05
   82.7333450         3.32792406E-05
   82.8601379         3.52404677E-05
   82.9869308         3.71665083E-05
   83.1137238         3.90269670E-05
   83.2405167         4.07921689E-05
   83.3673096         4.24339050E-05
   83.4941025         4.39263313E-05
   83.6208954         4.52464992E-05
   83.7476883         4.63751348E-05
   83.8744812         4.72970096E-05
   84.0012741         4.80013805E-05
   84.1280670         4.84822449E-05
   84.2548599         4.87384386E-05
   84.3816528         4.87736361E-05
   84.5084381         4.85962009E-05
   84.6352310         4.82189389E-05
   84.7620239         4.76586902E-05
   84.8888168         4.69359002E-05
   85.0156097         4.60740412E-05
   85.1424026         4.50989646E-05
   85.2691956         4.40382646E-05
   85.3959885         4.29205356E-05
   85.5227814         4.17746851E-05
   85.6495743         4.06292493E-05
   85.7763672         3.95116622E-05
   85.9031601         3.84476807E-05
   86.0299530         3.74608098E-05
   86.1567459         3.65717933E-05
   86.2835388         3.57982390E-05
   86.4103317         3.51543240E-05
   86.5371246         3.46505622E-05
   86.6639175         3.42937674E-05
   86.7907104         3.40870174E-05
   86.9175034         3.40297629E-05
   87.0442963         3.41181112E-05
   87.1710892         3.43450156E-05
   87.2978821         3.47007190E-05
   87.4246750         3.51731105E-05
   87.5514679         3.57482495E-05
   87.6782608         3.64107837E-05
   87.8050537         3.71444767E-05
   87.9318466         3.79326812E-05
   88.0586395         3.87587643E-05
   88.1854324         3.96065116E-05
   88.3122177         4.04604871E-05
   88.4390106         4.13062662E-05
   88.5658035         4.21306686E-05
   88.6925964         4.29218562E-05
   88.8193893         4.36693808E-05
   88.9461823         4.43641329E-05
   89.0729752         4.49982872E-05
   89.1997681         4.55650916E-05
   89.3265610         4.60587216E-05
   89.4533539         4.64740406E-05
   89.5801468         4.68063336E-05
   89.7069397         4.70511040E-05
   89.8337326         4.72038482E-05
   89.9605255         4.72598149E-05
   90.0873184         4.72139109E-05
   90.2141113         4.70605519E-05
   90.3409042         4.67936734E-05
   90.4676971         4.64066725E-05
   90.5944901         4.58925388E-05
   90.7212830         4.52439854E-05
   90.8480759         4.44535690E-05
   90.9748688         4.35140319E-05
   91.1016617         4.24184400E-05
   91.2284546         4.11605797E-05
   91.3552475         3.97351687E-05
   91.4820404         3.81381578E-05
   91.6088333         3.63670188E-05
   91.7356262         3.44209329E-05
   91.8624191         3.23010099E-05
   91.9892120         3.00103784E-05
   92.1159973         2.75542570E-05
   92.2427902         2.49399709E-05
   92.3695831         2.21768478E-05
   92.4963760         1.92760981E-05
   92.6231689         1.62506494E-05
   92.7499619         1.31148145E-05
   92.8767548         9.88406191E-06
   93.0035477         6.57471173E-06
   93.1303406         3.20351296E-06
   93.2571335        -2.12616925E-07
   93.3839264        -3.65690676E-06
   93.5107193        -7.11303846E-06
   93.6375122        -1.05653780E-05
   93.7643051        -1.39991134E-05
   93.8910980        -1.74003744E-05
   94.0178909        -2.07562844E-05
   94.1446838        -2.40548252E-05
   94.2714767        -2.72848720E-05
   94.3982697        -3.04358891E-05
   94.5250626        -3.34977449E-05
   94.6518555        -3.64604894E-05
   94.7786484        -3.93140072E-05
   94.9054413        -4.20478063E-05
   95.0322342        -4.46507438E-05
   95.1590271        -4.71107887E-05
   95.2858200        -4.94149135E-05
   95.4126129        -5.15489846E-05
   95.5394058        -5.34977735E-05
   95.6661987        -5.52451784E-05
   95.7929916        -5.67741954E-05
   95.9197769        -5.80675442E-05
   96.0465698        -5.91078642E-05
   96.1733627        -5.98782644E-05
   96.3001556        -6.03629305E-05
   96.4269485        -6.05476780E-05
   96.5537415        -6.04206980E-05
   96.6805344        -5.99730301E-05
   96.8073273        -5.91992721E-05
   96.9341202        -5.80981541E-05
   97.0609131        -5.66728631E-05
   97.1877060        -5.49315446E-05
   97.3144989        -5.28873970E-05
   97.4412918        -5.05588177E-05
   97.5680847        -4.79692972E-05
   97.6948776        -4.51472624E-05
   97.8216705        -4.21256009E-05
   97.9484634        -3.89411762E-05
   98.0752563        -3.56342025E-05