  -4.50000000         0.00000000    
  -4.37320757         0.00000000    
  -4.24641466         0.00000000    
  -4.11962223         0.00000000    
  -3.99282932         0.00000000    
  -3.86603665         0.00000000    
  -3.73924398         0.00000000    
  -3.61245155         7.16067101E-31
  -3.48565888         2.95901927E-30
  -3.35886621         3.33734530E-29
  -3.23207355         1.46847729E-28
  -3.10528088         6.37135518E-28
  -2.97848821         3.28137671E-27
  -2.85169554         1.65843522E-26
  -2.72490287         7.06270250E-26
  -2.59811020         2.46638792E-25
  -2.47131753         7.13481893E-25
  -2.34452486         1.72876639E-24
  -2.21773219         3.51331076E-24
  -2.09093952         5.88987849E-24
  -1.96414697         7.68067321E-24
  -1.83735430         6.16859369E-24
  -1.71056163        -2.59839068E-24
  -1.58376896        -2.15666099E-23
  -1.45697629        -4.78913385E-23
  -1.33018374        -6.69377066E-23
  -1.20339108        -4.97526274E-23
  -1.07659841         3.81553876E-23
 -0.949805737         2.09442141E-22
 -0.823013067         4.10080418E-22
 -0.696220458         4.76000538E-22
 -0.569427788         1.32152491E-22
 -0.442635119        -9.13597863E-22
 -0.315842479        -2.74916344E-21
 -0.189049825        -4.94377943E-21
  -6.22571707E-02    -6.28206880E-21
   6.45354837E-02    -4.79339533E-21
  0.191328138         1.65166966E-21
  0.318120778         1.40464493E-20
  0.444913447         3.04699055E-20
  0.571706116         4.45299403E-20
  0.698498726         4.51698646E-20
  0.825291395         1.90672127E-20
  0.952084064        -4.36946042E-20
   1.07887673        -1.41293409E-19
   1.20566940        -2.51597220E-19
   1.33246195        -3.27492954E-19
   1.45925462        -3.00977033E-19
   1.58604729        -9.97414124E-20
   1.71283996         3.23425164E-19
   1.83963263         9.53399275E-19
   1.96642530         1.67845514E-18
   2.09321785         2.27398526E-18
   2.22001052         2.41958063E-18
   2.34680319         1.75970144E-18
   2.47359586         7.62570213E-21
   2.60038853        -2.92172517E-18
   2.72718120        -6.77829348E-18
   2.85397387        -1.08801266E-17
   2.98076653        -1.40916719E-17
   3.10755920        -1.49069974E-17
   3.23435187        -1.16518241E-17
   3.36114454        -2.79925136E-18
   3.48793697         1.26231591E-17
   3.61472964         3.45700219E-17
   3.74152231         6.15040284E-17
   3.86831498         8.99714956E-17
   3.99510765         1.14314918E-16
   4.12190056         1.26653448E-16
   4.24869299         1.17311284E-16
   4.37548542         7.59063083E-17
   4.50227833        -6.71649978E-18
   4.62907076        -1.35650553E-16
   4.75586367        -3.08393314E-16
   4.88265610        -5.11184754E-16
   5.00944901        -7.16206115E-16
   5.13624144        -8.80953970E-16
   5.26303434        -9.51173531E-16
   5.38982677        -8.68395065E-16
   5.51661968        -5.82264636E-16
   5.64341211        -6.65787881E-17
   5.77020502         6.63601980E-16
   5.89699745         1.53775211E-15
   6.02379036         2.42334665E-15
   6.15058279         3.13148017E-15
   6.27737522         3.43756802E-15
   6.40416813         3.11729406E-15
   6.53096056         1.99444051E-15
   6.65775347        -6.41188142E-18
   6.78454590        -2.81207972E-15
   6.91133881        -6.16876096E-15
   7.03813124        -9.63573161E-15
   7.16492414        -1.26114659E-14
   7.29171658        -1.43941086E-14
   7.41850948        -1.42725373E-14
   7.54530191        -1.16390289E-14
   7.67209482        -6.11028943E-15
   7.79888725         2.35869199E-15
   7.92567968         1.33842073E-14
   8.05247211         2.61021758E-14
   8.17926502         3.91686466E-14
   8.30605793         5.08232847E-14
   8.43285084         5.90230176E-14
   8.55964279         6.16477694E-14
   8.68643570         5.67732371E-14
   8.81322861         4.29953382E-14
   8.94002151         1.97784548E-14
   9.06681347        -1.22141482E-14
   9.19360638        -5.08616586E-14
   9.32039928        -9.24605715E-14
   9.44719219        -1.31794464E-13
   9.57398415        -1.62449413E-13
   9.70077705        -1.77403041E-13
   9.82756996        -1.69883422E-13
   9.95436192        -1.34454595E-13
   10.0811548        -6.82436014E-14
   10.2079477         2.78132450E-14
   10.3347406         1.47859088E-13
   10.4615326         2.80311175E-13
   10.5883255         4.07539291E-13
   10.7151184         5.06192039E-13
   10.8419113         5.48310583E-13
   10.9687033         5.03319771E-13
   11.0954962         3.40926099E-13
   11.2222891         3.48650349E-14
   11.3490820        -4.32657138E-13
   11.4758739        -1.06609491E-12
   11.6026669        -1.85165468E-12
   11.7294598        -2.75283507E-12
   11.8562517        -3.70699044E-12
   11.9830446        -4.62354590E-12
   12.1098375        -5.38446371E-12
   12.2366304        -5.84753166E-12
   12.3634224        -5.85287678E-12
   12.4902153        -5.23293952E-12
   12.6170082        -3.82588796E-12
   12.7438011        -1.49215894E-12
   12.8705931         1.86654034E-12
   12.9973860         6.28674586E-12
   13.1241789         1.17226506E-11
   13.2509708         1.80270920E-11
   13.3777637         2.49361191E-11
   13.5045567         3.20592650E-11
   13.6313496         3.88777274E-11
   13.7581415         4.47525801E-11
   13.8849344         4.89447233E-11
   14.0117273         5.06475833E-11
   14.1385202         4.90329374E-11
   14.2653122         4.33092208E-11
   14.3921051         3.27901040E-11
   14.5188980         1.69704494E-11
   14.6456909        -4.39479919E-12
   14.7724829        -3.12142569E-11
   14.8992758        -6.29923544E-11
   15.0260687        -9.87769311E-11
   15.1528606        -1.37128864E-10
   15.2796535        -1.76119674E-10
   15.4064465        -2.13362925E-10
   15.5332394        -2.46082432E-10
   15.6600313        -2.71219713E-10
   15.7868242        -2.85579504E-10
   15.9136171        -2.86010243E-10
   16.0404091        -2.69612999E-10
   16.1672020        -2.33969594E-10
   16.2939949        -1.77377987E-10
   16.4207878        -9.90809448E-11
   16.5475807         5.27921402E-13
   16.6743736         1.19737109E-10
   16.8011646         2.55404864E-10
   16.9279575         4.02916173E-10
   17.0547504         5.56221125E-10
   17.1815434         7.07963077E-10
   17.3083363         8.49700421E-10
   17.4351292         9.72221192E-10
   17.5619221         1.06594300E-09
   17.6887150         1.12138809E-09
   17.8155060         1.12971099E-09
   17.9422989         1.08326093E-09
   18.0690918         9.76146386E-10
   18.1958847         8.04776190E-10
   18.3226776         5.68337766E-10
   18.4494705         2.69188727E-10
   18.5762634        -8.68767627E-11
   18.7030544        -4.90507412E-10
   18.8298473        -9.28844779E-10
   18.9566402        -1.38575651E-09
   19.0834332        -1.84225823E-09
   19.2102261        -2.27712005E-09
   19.3370190        -2.66764588E-09
   19.4638119        -2.99060154E-09
   19.5906048        -3.22325922E-09
   19.7173958        -3.34451822E-09
   19.8441887        -3.33605610E-09
   19.9709816        -3.18346127E-09
   20.0977745        -2.87727930E-09
   20.2245674        -2.41393772E-09
   20.3513603        -1.79647730E-09
   20.4781532        -1.03505415E-09
   20.6049442        -1.47159909E-10
   20.7317371         8.42459325E-10
   20.8585300         1.90221994E-09
   20.9853230         2.99445291E-09
   21.1121159         4.07648582E-09
   21.2389088         5.10203924E-09
   21.3657017         6.02289285E-09
   21.4924946         6.79078216E-09
   21.6192856         7.35946371E-09
   21.7460785         7.68685382E-09
   21.8728714         7.73719933E-09
   21.9996643         7.48313322E-09
   22.1264572         6.90759361E-09
   22.2532501         6.00543304E-09
   22.3800430         4.78468287E-09
   22.5068340         3.26738636E-09
   22.6336269         1.48989288E-09
   22.7604198        -4.97411001E-10
   22.8872128        -2.63097899E-09
   23.0140057        -4.83561902E-09
   23.1407986        -7.02661351E-09
   23.2675915        -9.11244857E-09
   23.3943844        -1.09980522E-08
   23.5211754        -1.25884831E-08
   23.6479683        -1.37929401E-08
   23.7747612        -1.45289745E-08
   23.9015541        -1.47267096E-08
   24.0283470        -1.43329526E-08
   24.1551399        -1.33149207E-08
   24.2819328        -1.16635039E-08
   24.4087238        -9.39578637E-09
   24.5355167        -6.55669119E-09
   24.6623096        -3.21957283E-09
   24.7891026         5.14329357E-10
   24.9158955         4.51767468E-09
   25.0426884         8.64015348E-09
   25.1694813         1.27128255E-08
   25.2962742         1.65537095E-08
   25.4230652         1.99744576E-08
   25.5498581         2.27879102E-08
   25.6766510         2.48163268E-08
   25.8034439         2.58999844E-08
   25.9302368         2.59057682E-08
   26.0570297         2.47354457E-08
   26.1838226         2.23331806E-08
   26.3106136         1.86919653E-08
   26.4374065         1.38584140E-08
   26.5641994         7.93579868E-09
   26.6909924         1.08483067E-09
   26.8177853        -6.47789333E-09
   26.9445782        -1.44840895E-08
   27.0713711        -2.26205170E-08
   27.1981640        -3.05383132E-08
   27.3249550        -3.78646092E-08
   27.4517479        -4.42163781E-08
   27.5785408        -4.92157781E-08
   27.7053337        -5.25067527E-08
   27.8321266        -5.37721760E-08
   27.9589195        -5.27507957E-08
   28.0857124        -4.92534049E-08
   28.2125034        -4.31773017E-08
   28.3392963        -3.45184787E-08
   28.4660892        -2.33807107E-08
   28.5928822        -9.98096361E-09
   28.7196751         5.34937028E-09
   28.8464680         2.21678338E-08
   28.9732609         3.99290414E-08
   29.1000538         5.79976565E-08
   29.2268448         7.56660796E-08
   29.3536377         9.21763430E-08
   29.4804306         1.06745873E-07
   29.6072235         1.18596205E-07
   29.7340164         1.26983835E-07
   29.8608093         1.31232071E-07
   29.9876022         1.30762686E-07
   30.1143932         1.25126405E-07
   30.2411861         1.14030463E-07
   30.3679790         9.73626513E-08
   30.4947720         7.52099325E-08
   30.6215649         4.78713993E-08
   30.7483578         1.58639342E-08
   30.8751507        -2.00794634E-08
   31.0019417        -5.90193849E-08
   31.1287346        -9.98278367E-08
   31.2555275        -1.41213903E-07
   31.3823204        -1.81757059E-07
   31.5091133        -2.19946770E-07
   31.6359062        -2.54228183E-07
   31.7626991        -2.83052003E-07
   31.8894920        -3.04927198E-07
   32.0162849        -3.18475117E-07
   32.1430779        -3.22482663E-07
   32.2698708        -3.15953486E-07
   32.3966637        -2.98154845E-07
   32.5234528        -2.68658539E-07
   32.6502457        -2.27374258E-07
   32.7770386        -1.74574396E-07
   32.9038315        -1.10908346E-07
   33.0306244        -3.74060320E-08
   33.1574173         4.45297950E-08
   33.2842102         1.33143303E-07
   33.4110031         2.26356491E-07
   33.5377960         3.21811314E-07
   33.6645889         4.16922148E-07
   33.7913818         5.08936637E-07
   33.9181747         5.95004508E-07
   34.0449677         6.72252213E-07
   34.1717606         7.37860830E-07
   34.2985535         7.89146270E-07
   34.4253426         8.23638345E-07
   34.5521355         8.39157963E-07
   34.6789284         8.33888350E-07
   34.8057213         8.06440198E-07
   34.9325142         7.55908104E-07
   35.0593071         6.81914969E-07
   35.1861000         5.84645875E-07
   35.3128929         4.64867895E-07
   35.4396858         3.23936064E-07
   35.5664787         1.63784748E-07
   35.6932716        -1.30954252E-08
   35.8200645        -2.03694782E-07
   35.9468575        -4.04535484E-07
   36.0736504        -6.11735061E-07
   36.2004433        -8.21079993E-07
   36.3272324        -1.02811009E-06
   36.4540253        -1.22820836E-06
   36.5808182        -1.41669739E-06
   36.7076111        -1.58893795E-06
   36.8344040        -1.74042702E-06
   36.9611969        -1.86689601E-06
   37.0879898        -1.96440214E-06
   37.2147827        -2.02941442E-06
   37.3415756        -2.05889114E-06
   37.4683685        -2.05034735E-06
   37.5951614        -2.00191039E-06
   37.7219543        -1.91236199E-06
   37.8487473        -1.78117057E-06
   37.9755402        -1.60850607E-06
   38.1023293        -1.39524741E-06
   38.2291222        -1.14297268E-06
   38.3559151        -8.53942538E-07
   38.4827080        -5.31073340E-07
   38.6095009        -1.77901782E-07
   38.7362938         2.01453744E-07
   38.8630867         6.02336740E-07
   38.9898796         1.01959654E-06
   39.1166725         1.44763192E-06
   39.2434654         1.88043259E-06
   39.3702583         2.31161403E-06
   39.4970512         2.73445244E-06
   39.6238441         3.14191061E-06
   39.7506371         3.52665734E-06
   39.8774300         3.88108492E-06
   40.0042191         4.19732305E-06
   40.1310120         4.46724380E-06
   40.2578049         4.68247435E-06
   40.3845978         4.83440726E-06
   40.5113907         4.91421497E-06
   40.6381836         4.91287619E-06
   40.7649765         4.82120549E-06
   40.8917694         4.62990329E-06
   41.0185623         4.32961042E-06
   41.1453552         3.91099229E-06
   41.2721481         3.36482844E-06
   41.3989410         2.68213466E-06
   41.5257339         1.85428689E-06
   41.6525269         8.73175850E-07
   41.7793198        -2.68629236E-07
   41.9061089        -1.57770353E-06
   42.0329018        -3.05958156E-06
   42.1596947        -4.71856447E-06
   42.2864876        -6.55753001E-06
   42.4132805        -8.57775285E-06
   42.5400734        -1.07787146E-05
   42.6668663        -1.31579654E-05
   42.7936592        -1.57109698E-05
   42.9204521        -1.84310102E-05
   43.0472450        -2.13090807E-05
   43.1740379        -2.43338836E-05
   43.3008308        -2.74917747E-05
   43.4276237        -3.07668306E-05
   43.5544167        -3.41408959E-05
   43.6812096        -3.75937016E-05
   43.8079987        -4.11030378E-05
   43.9347916        -4.46449376E-05
   44.0615845        -4.81938660E-05
   44.1883774        -5.17230619E-05
   44.3151703        -5.52047532E-05
   44.4419632        -5.86105307E-05
   44.5687561        -6.19116399E-05
   44.6955490        -6.50793299E-05
   44.8223419        -6.80852827E-05
   44.9491348        -7.09018495E-05
   45.0759277        -7.35025606E-05
   45.2027206        -7.58623501E-05
   45.3295135        -7.79578986E-05
   45.4563065        -7.97680550E-05
   45.5830994        -8.12740036E-05
   45.7098885        -8.24595627E-05
   45.8366814        -8.33114900E-05
   45.9634743        -8.38194901E-05
   46.0902672        -8.39765489E-05
   46.2170601        -8.37788830E-05
   46.3438530        -8.32261430E-05
   46.4706459        -8.23212758E-05
   46.5974388        -8.10706115E-05
   46.7242317        -7.94836888E-05
   46.8510246        -7.75731605E-05
   46.9778175        -7.53546774E-05
   47.1046104        -7.28465238E-05
   47.2314034        -7.00695382E-05
   47.3581963        -6.70467343E-05
   47.4849892        -6.38030469E-05
   47.6117783        -6.03650151E-05
   47.7385712        -5.67604911E-05
   47.8653641        -5.30181860E-05
   47.9921570        -4.91675200E-05
   48.1189499        -4.52381755E-05
   48.2457428        -4.12598274E-05
   48.3725357        -3.72619143E-05
   48.4993286        -3.32733689E-05
   48.6261215        -2.93223384E-05
   48.7529144        -2.54361748E-05
   48.8797073        -2.16410481E-05
   49.0065002        -1.79620038E-05
   49.1332932        -1.44228015E-05
   49.2600861        -1.10458341E-05
   49.3868790        -7.85211250E-06
   49.5136681        -4.86121007E-06
   49.6404610        -2.09121754E-06
   49.7672539         4.41253860E-07
   49.8940468         2.72108355E-06
   50.0208397         4.73477348E-06
   50.1476326         6.47038996E-06
   50.2744255         7.91772527E-06
   50.4012184         9.06839159E-06
   50.5280113         9.91599154E-06
   50.6548042         1.04562105E-05
   50.7815971         1.06870175E-05
   50.9083900         1.06088319E-05
   51.0351830         1.02247086E-05
   51.1619759         9.54056304E-06
   51.2887688         8.56524366E-06
   51.4155579         7.31076989E-06
   51.5423508         5.79244124E-06
   51.6691437         4.02880960E-06
   51.7959366         2.04174739E-06
   51.9227295        -1.43664053E-07
   52.0495224        -2.49930849E-06
   52.1763153        -4.99419230E-06
   52.3031082        -7.59485147E-06
   52.4299011        -1.02656786E-05
   52.5566940        -1.29694054E-05
   52.6834869        -1.56676633E-05
   52.8102798        -1.83215707E-05
   52.9370728        -2.08923157E-05
   53.0638657        -2.33419378E-05
   53.1906586        -2.56338881E-05
   53.3174477        -2.77337385E-05
   53.4442406        -2.96099224E-05
   53.5710335        -3.12341108E-05
   53.6978264        -3.25819383E-05
   53.8246193        -3.36332778E-05
   53.9514122        -3.43727734E-05
   54.0782051        -3.47898676E-05
   54.2049980        -3.48791800E-05
   54.3317909        -3.46402849E-05
   54.4585838        -3.40777551E-05
   54.5853767        -3.32009768E-05
   54.7121696        -3.20237741E-05
   54.8389626        -3.05640679E-05
   54.9657555        -2.88434221E-05
   55.0925484        -2.68864860E-05
   55.2193375        -2.47205007E-05
   55.3461304        -2.23746829E-05
   55.4729233        -1.98797225E-05
   55.5997162        -1.72671553E-05
   55.7265091        -1.45688937E-05
   55.8533020        -1.18167636E-05
   55.9800949        -9.04198987E-06
   56.1068878        -6.27496775E-06
   56.2336807        -3.54485155E-06
   56.3604736        -8.79314257E-07
   56.4872665         1.69563111E-06
   56.6140594         4.15573868E-06
   56.7408524         6.47866318E-06
   56.8676453         8.64405592E-06
   56.9944382         1.06336165E-05
   57.1212273         1.24311564E-05
   57.2480202         1.40226612E-05
   57.3748131         1.53963865E-05
   57.5016060         1.65429028E-05
   57.6283989         1.74553406E-05
   57.7551918         1.81293726E-05
   57.8819847         1.85635126E-05
   58.0087776         1.87592832E-05
   58.1355705         1.87212954E-05
   58.2623634         1.84575401E-05
   58.3891563         1.79794588E-05
   58.5159492         1.73020744E-05
   58.6427422         1.64440535E-05
   58.7695351         1.54276368E-05
   58.8963280         1.42784993E-05
   59.0231171         1.30256603E-05
   59.1499100         1.17009904E-05
   59.2767029         1.03389193E-05
   59.4034958         8.97578866E-06
   59.5302887         7.64924516E-06
   59.6570816         6.39745986E-06
   59.7838745         5.25833229E-06
   59.9106674         4.26858423E-06
   60.0374603         3.46283809E-06
   60.1642532         2.87270109E-06
   60.2910461         2.52582458E-06
   60.4178391         2.44514990E-06
   60.5446320         2.64801565E-06
   60.6714249         3.14563090E-06
   60.7982178         3.94248445E-06
   60.9250069         5.03603314E-06
   61.0517998         6.41655470E-06
   61.1785927         8.06721619E-06
   61.3053856         9.96425661E-06
   61.4321785         1.20774957E-05
   61.5589714         1.43709558E-05
   61.6857643         1.68037041E-05
   61.8125572         1.93308151E-05
   61.9393501         2.19045651E-05
   62.0661430         2.44755956E-05
   62.1929359         2.69943121E-05
   62.3197289         2.94120800E-05
   62.4465218         3.16827209E-05
   62.5733147         3.37636957E-05
   62.7001076         3.56173332E-05
   62.8268967         3.72118302E-05
   62.9536896         3.85222593E-05
   63.0804825         3.95311363E-05
   63.2072754         4.02290170E-05
   63.3340683         4.06146683E-05
   63.4608612         4.06951767E-05
   63.5876541         4.04856364E-05
   63.7144470         4.00086428E-05
   63.8412399         3.92937145E-05
   63.9680328         3.83761944E-05
   64.0948257         3.72962350E-05
   64.2216187         3.60975646E-05
   64.3484116         3.48260292E-05
   64.4752045         3.35281838E-05
   64.6019974         3.22497981E-05
   64.7287903         3.10343967E-05
   64.8555832         2.99218300E-05
   64.9823761         2.89469845E-05
   65.1091690         2.81386019E-05
   65.2359619         2.75183211E-05
   65.3627548         2.70999190E-05
   65.4895477         2.68888161E-05
   65.6163330         2.68817912E-05
   65.7431259         2.70670080E-05
   65.8699188         2.74243394E-05
   65.9967117         2.79258966E-05
   66.1235046         2.85368806E-05
   66.2502975         2.92166205E-05
   66.3770905         2.99198364E-05
   66.5038834         3.05980902E-05
   66.6306763         3.12013290E-05
   66.7574692         3.16795558E-05
   66.8842621         3.19843748E-05
   67.0110550         3.20707804E-05
   67.1378479         3.18986895E-05
   67.2646408         3.14343124E-05
   67.3914337         3.06514739E-05
   67.5182266         2.95326590E-05
   67.6450195         2.80698878E-05
   67.7718124         2.62652829E-05
   67.8986053         2.41311755E-05
   68.0253983         2.16902863E-05
   68.1521912         1.89751790E-05
   68.2789841         1.60277668E-05
   68.4057770         1.28983111E-05
   68.5325699         9.64435822E-06
   68.6593628         6.32925412E-06
   68.7861557         3.02079525E-06
   68.9129486        -2.10713921E-07
   69.0397415        -3.29401951E-06
   69.1665344        -6.15866975E-06
   69.2933273        -8.73693716E-06
   69.4201126        -1.09653929E-05
   69.5469055        -1.27865169E-05
   69.6736984        -1.41500541E-05
   69.8004913        -1.50142560E-05
   69.9272842        -1.53468791E-05
   70.0540771        -1.51258446E-05
   70.1808701        -1.43397474E-05
   70.3076630        -1.29879954E-05
   70.4344559        -1.10806241E-05
   70.5612488        -8.63803507E-06
   70.6880417        -5.69024314E-06
   70.8148346        -2.27612418E-06
   70.9416275         1.55778719E-06
   71.0684204         5.75843023E-06
   71.1952133         1.02677695E-05
   71.3220062         1.50240885E-05
   71.4487991         1.99636415E-05
   71.5755920         2.50221347E-05
   71.7023849         3.01361997E-05
   71.8291779         3.52448769E-05
   71.9559708         4.02908518E-05
   72.0827637         4.52216227E-05
   72.2095566         4.99905582E-05
   72.3363495         5.45575531E-05
   72.4631424         5.88898183E-05
   72.5899353         6.29621136E-05
   72.7167282         6.67569620E-05
   72.8435211         7.02645339E-05
   72.9703140         7.34824062E-05
   73.0971069         7.64151919E-05
   73.2238922         7.90739286E-05
   73.3506851         8.14752348E-05
   73.4774780         8.36405743E-05
   73.6042709         8.55952749E-05
   73.7310638         8.73676836E-05
   73.8578568         8.89881121E-05
   73.9846497         9.04878616E-05
   74.1114426         9.18983642E-05
   74.2382355         9.32503681E-05
   74.3650284         9.45731517E-05
   74.4918213         9.58938908E-05
   74.6186142         9.72372654E-05
   74.7454071         9.86249070E-05
   74.8722000         1.00075398E-04
   74.9989929         1.01603888E-04
   75.1257858         1.03222257E-04
   75.2525787         1.04939063E-04
   75.3793716         1.06759944E-04
   75.5061646         1.08687709E-04
   75.6329575         1.10722794E-04
   75.7597504         1.12863578E-04
   75.8865433         1.15106755E-04
   76.0133362         1.17447707E-04
   76.1401291         1.19880962E-04
   76.2669220         1.22400277E-04
   76.3937149         1.24999147E-04
   76.5205078         1.27670661E-04
   76.6473007         1.30407774E-04
   76.7740936         1.33203430E-04
   76.9008865         1.36050236E-04
   77.0276718         1.38940552E-04
   77.1544647         1.41866025E-04
   77.2812576         1.44817663E-04
   77.4080505         1.47784958E-04
   77.5348434         1.50755965E-04
   77.6616364         1.53716683E-04
   77.7884293         1.56650683E-04
   77.9152222         1.59538686E-04
   78.0420151         1.62358454E-04
   78.1688080         1.65084362E-04
   78.2956009         1.67687293E-04
   78.4223938         1.70134663E-04
   78.5491867         1.72390326E-04
   78.6759796         1.74414759E-04
   78.8027725         1.76165733E-04
   78.9295654         1.77598107E-04
   79.0563583         1.78664981E-04
   79.1831512         1.79318216E-04
   79.3099442         1.79509268E-04
   79.4367371         1.79189912E-04
   79.5635300         1.78313494E-04
   79.6903229         1.76835762E-04
   79.8171158         1.74715737E-04
   79.9439087         1.71916996E-04
   80.0707016         1.68408384E-04
   80.1974945         1.64164871E-04
   80.3242874         1.59168529E-04
   80.4510803         1.53408982E-04
   80.5778732         1.46884020E-04
   80.7046585         1.39599812E-04
   80.8314514         1.31571171E-04
   80.9582443         1.22821453E-04
   81.0850372         1.13382281E-04
   81.2118301         1.03293394E-04
   81.3386230         9.26019275E-05
   81.4654160         8.13618171E-05
   81.5922089         6.96330244E-05
   81.7190018         5.74806945E-05
   81.8457947         4.49740728E-05
   81.9725876         3.21855405E-05
   82.0993805         1.91895324E-05
   82.2261734         6.06146614E-06
   82.3529663        -7.12332985E-06
   82.4797592        -2.02905139E-05
   82.6065521        -3.33677526E-05
   82.7333450        -4.62855096E-05
   82.8601379        -5.89777810E-05
   82.9869308        -7.13828631E-05
   83.1137238        -8.34438688E-05
   83.2405167        -9.51090915E-05
   83.3673096        -1.06332620E-04
   83.4941025        -1.17074371E-04
   83.6208954        -1.27300227E-04
   83.7476883        -1.36982271E-04
   83.8744812        -1.46098420E-04
   84.0012741        -1.54632580E-04
   84.1280670        -1.62574273E-04
   84.2548599        -1.69918509E-04
   84.3816528        -1.76665329E-04
   84.5084381        -1.82819553E-04
   84.6352310        -1.88390492E-04
   84.7620239        -1.93391170E-04
   84.8888168        -1.97838221E-04
   85.0156097        -2.01751318E-04
   85.1424026        -2.05152479E-04
   85.2691956        -2.08066034E-04
   85.3959885        -2.10517668E-04
   85.5227814        -2.12534564E-04
   85.6495743        -2.14144544E-04
   85.7763672        -2.15375941E-04
   85.9031601        -2.16257176E-04
   86.0299530        -2.16816479E-04
   86.1567459        -2.17081673E-04
   86.2835388        -2.17079956E-04
   86.4103317        -2.16837609E-04
   86.5371246        -2.16380140E-04
   86.6639175        -2.15732143E-04
   86.7907104        -2.14917221E-04
   86.9175034        -2.13958163E-04
   87.0442963        -2.12876825E-04
   87.1710892        -2.11694482E-04
   87.2978821        -2.10431652E-04
   87.4246750        -2.09108417E-04
   87.5514679        -2.07744553E-04
   87.6782608        -2.06359633E-04
   87.8050537        -2.04973127E-04
   87.9318466        -2.03604504E-04
   88.0586395        -2.02273251E-04
   88.1854324        -2.00998926E-04
   88.3122177        -1.99801027E-04
   88.4390106        -1.98699010E-04
   88.5658035        -1.97711721E-04
   88.6925964        -1.96857567E-04
   88.8193893        -1.96153909E-04
   88.9461823        -1.95616638E-04
   89.0729752        -1.95259825E-04
   89.1997681        -1.95095228E-04
   89.3265610        -1.95131448E-04
   89.4533539        -1.95373708E-04
   89.5801468        -1.95823042E-04
   89.7069397        -1.96475856E-04
   89.8337326        -1.97323490E-04
   89.9605255        -1.98351801E-04
   90.0873184        -1.99540955E-04
   90.2141113        -2.00865339E-04
   90.3409042        -2.02293653E-04
   90.4676971        -2.03788950E-04
   90.5944901        -2.05309450E-04
   90.7212830        -2.06808822E-04
   90.8480759        -2.08237238E-04
   90.9748688        -2.09542297E-04
   91.1016617        -2.10670187E-04
   91.2284546        -2.11567167E-04
   91.3552475        -2.12180850E-04
   91.4820404        -2.12461848E-04
   91.6088333        -2.12364961E-04
   91.7356262        -2.11850871E-04
   91.8624191        -2.10887389E-04
   91.9892120        -2.09450474E-04
   92.1159973        -2.07525343E-04
   92.2427902        -2.05107222E-04
   92.3695831        -2.02201583E-04
   92.4963760        -1.98824433E-04
   92.6231689        -1.95002140E-04
   92.7499619        -1.90770690E-04
   92.8767548        -1.86175021E-04
   93.0035477        -1.81267795E-04
   93.1303406        -1.76107787E-04
   93.2571335        -1.70758503E-04
   93.3839264        -1.65286096E-04
   93.5107193        -1.59757707E-04
   93.6375122        -1.54239286E-04
   93.7643051        -1.48793828E-04
   93.8910980        -1.43479454E-04
   94.0178909        -1.38347750E-04
   94.1446838        -1.33442241E-04
   94.2714767        -1.28797212E-04
   94.3982697        -1.24436905E-04
   94.5250626        -1.20374876E-04
   94.6518555        -1.16613890E-04
   94.7786484        -1.13146161E-04
   94.9054413        -1.09953908E-04
   95.0322342        -1.07010179E-04
   95.1590271        -1.04280138E-04
   95.2858200        -1.01722435E-04
   95.4126129        -9.92908754E-05
   95.5394058        -9.69362445E-05
   95.6661987        -9.46080545E-05
   95.7929916        -9.22566178E-05
   95.9197769        -8.98348153E-05
   96.0465698        -8.72997989E-05
   96.1733627        -8.46146359E-05
   96.3001556        -8.17495093E-05
   96.4269485        -7.86828168E-05
   96.5537415        -7.54017819E-05
   96.6805344        -7.19029704E-05
   96.8073273        -6.81921738E-05
   96.9341202        -6.42843224E-05
   97.0609131        -6.02027503E-05
   97.1877060        -5.59783875E-05
   97.3144989        -5.16486143E-05
   97.4412918        -4.72558640E-05
   97.5680847        -4.28461026E-05
   97.6948776        -3.84672094E-05
   97.8216705        -3.41672858E-05
   97.9484634        -2.99930307E-05
   98.0752563        -2.59882490E-05