  -4.50000000         0.00000000    
  -4.37320757         0.00000000    
  -4.24641466         0.00000000    
  -4.11962223         0.00000000    
  -3.99282932         0.00000000    
  -3.86603665         0.00000000    
  -3.73924398         0.00000000    
  -3.61245155         0.00000000    
  -3.48565888         0.00000000    
  -3.35886621         0.00000000    
  -3.23207355         0.00000000    
  -3.10528088         0.00000000    
  -2.97848821         0.00000000    
  -2.85169554         0.00000000    
  -2.72490287         0.00000000    
  -2.59811020         0.00000000    
  -2.47131753         0.00000000    
  -2.34452486         0.00000000    
  -2.21773219         0.00000000    
  -2.09093952         0.00000000    
  -1.96414697         0.00000000    
  -1.83735430         0.00000000    
  -1.71056163         0.00000000    
  -1.58376896         0.00000000    
  -1.45697629         0.00000000    
  -1.33018374         0.00000000    
  -1.20339108         0.00000000    
  -1.07659841         0.00000000    
 -0.949805737         0.00000000    
 -0.823013067         0.00000000    
 -0.696220458         0.00000000    
 -0.569427788         0.00000000    
 -0.442635119         0.00000000    
 -0.315842479         0.00000000    
 -0.189049825         0.00000000    
  -6.22571707E-02     0.00000000    
   6.45354837E-02     0.00000000    
  0.191328138         0.00000000    
  0.318120778         0.00000000    
  0.444913447         0.00000000    
  0.571706116         0.00000000    
  0.698498726         0.00000000    
  0.825291395         0.00000000    
  0.952084064         0.00000000    
   1.07887673         0.00000000    
   1.20566940         0.00000000    
   1.33246195         0.00000000    
   1.45925462         0.00000000    
   1.58604729         0.00000000    
   1.71283996         0.00000000    
   1.83963263         0.00000000    
   1.96642530         0.00000000    
   2.09321785         0.00000000    
   2.22001052         0.00000000    
   2.34680319         0.00000000    
   2.47359586         0.00000000    
   2.60038853         0.00000000    
   2.72718120         0.00000000    
   2.85397387         0.00000000    
   2.98076653         0.00000000    
   3.10755920         0.00000000    
   3.23435187         0.00000000    
   3.36114454         0.00000000    
   3.48793697         0.00000000    
   3.61472964         0.00000000    
   3.74152231         0.00000000    
   3.86831498         0.00000000    
   3.99510765         0.00000000    
   4.12190056         0.00000000    
   4.24869299         0.00000000    
   4.37548542         0.00000000    
   4.50227833         0.00000000    
   4.62907076         0.00000000    
   4.75586367         0.00000000    
   4.88265610         0.00000000    
   5.00944901         0.00000000    
   5.13624144         0.00000000    
   5.26303434         0.00000000    
   5.38982677         0.00000000    
   5.51661968         0.00000000    
   5.64341211         0.00000000    
   5.77020502         0.00000000    
   5.89699745         0.00000000    
   6.02379036         0.00000000    
   6.15058279         0.00000000    
   6.27737522         0.00000000    
   6.40416813         0.00000000    
   6.53096056         0.00000000    
   6.65775347         0.00000000    
   6.78454590         0.00000000    
   6.91133881         0.00000000    
   7.03813124         0.00000000    
   7.16492414         0.00000000    
   7.29171658         0.00000000    
   7.41850948         0.00000000    
   7.54530191         0.00000000    
   7.67209482         0.00000000    
   7.79888725         0.00000000    
   7.92567968         0.00000000    
   8.05247211         0.00000000    
   8.17926502         0.00000000    
   8.30605793         0.00000000    
   8.43285084         0.00000000    
   8.55964279         0.00000000    
   8.68643570         0.00000000    
   8.81322861         0.00000000    
   8.94002151         0.00000000    
   9.06681347         0.00000000    
   9.19360638         0.00000000    
   9.32039928         0.00000000    
   9.44719219         0.00000000    
   9.57398415         0.00000000    
   9.70077705         0.00000000    
   9.82756996         0.00000000    
   9.95436192         0.00000000    
   10.0811548         0.00000000    
   10.2079477         0.00000000    
   10.3347406         0.00000000    
   10.4615326         0.00000000    
   10.5883255         0.00000000    
   10.7151184         0.00000000    
   10.8419113         0.00000000    
   10.9687033         0.00000000    
   11.0954962         0.00000000    
   11.2222891         0.00000000    
   11.3490820         0.00000000    
   11.4758739         0.00000000    
   11.6026669         0.00000000    
   11.7294598         0.00000000    
   11.8562517         0.00000000    
   11.9830446         0.00000000    
   12.1098375         0.00000000    
   12.2366304         0.00000000    
   12.3634224         0.00000000    
   12.4902153         0.00000000    
   12.6170082         0.00000000    
   12.7438011         0.00000000    
   12.8705931         0.00000000    
   12.9973860         0.00000000    
   13.1241789         0.00000000    
   13.2509708         0.00000000    
   13.3777637         0.00000000    
   13.5045567         0.00000000    
   13.6313496         0.00000000    
   13.7581415         0.00000000    
   13.8849344         0.00000000    
   14.0117273         0.00000000    
   14.1385202         0.00000000    
   14.2653122         0.00000000    
   14.3921051         0.00000000    
   14.5188980         0.00000000    
   14.6456909         0.00000000    
   14.7724829         0.00000000    
   14.8992758         0.00000000    
   15.0260687         0.00000000    
   15.1528606         0.00000000    
   15.2796535         0.00000000    
   15.4064465         0.00000000    
   15.5332394         0.00000000    
   15.6600313         0.00000000    
   15.7868242         0.00000000    
   15.9136171         0.00000000    
   16.0404091         0.00000000    
   16.1672020         0.00000000    
   16.2939949         0.00000000    
   16.4207878         0.00000000    
   16.5475807         0.00000000    
   16.6743736         0.00000000    
   16.8011646         0.00000000    
   16.9279575         0.00000000    
   17.0547504         0.00000000    
   17.1815434         0.00000000    
   17.3083363         0.00000000    
   17.4351292         0.00000000    
   17.5619221         0.00000000    
   17.6887150         0.00000000    
   17.8155060         0.00000000    
   17.9422989         0.00000000    
   18.0690918         0.00000000    
   18.1958847         0.00000000    
   18.3226776         0.00000000    
   18.4494705         0.00000000    
   18.5762634         0.00000000    
   18.7030544         0.00000000    
   18.8298473         0.00000000    
   18.9566402         0.00000000    
   19.0834332         0.00000000    
   19.2102261         0.00000000    
   19.3370190         0.00000000    
   19.4638119         0.00000000    
   19.5906048         0.00000000    
   19.7173958         0.00000000    
   19.8441887         0.00000000    
   19.9709816         0.00000000    
   20.0977745         0.00000000    
   20.2245674         0.00000000    
   20.3513603         0.00000000    
   20.4781532         0.00000000    
   20.6049442         0.00000000    
   20.7317371         0.00000000    
   20.8585300         0.00000000    
   20.9853230         0.00000000    
   21.1121159         0.00000000    
   21.2389088         0.00000000    
   21.3657017         0.00000000    
   21.4924946         0.00000000    
   21.6192856         0.00000000    
   21.7460785         0.00000000    
   21.8728714         0.00000000    
   21.9996643         0.00000000    
   22.1264572         0.00000000    
   22.2532501         0.00000000    
   22.3800430         0.00000000    
   22.5068340         0.00000000    
   22.6336269         0.00000000    
   22.7604198         0.00000000    
   22.8872128         0.00000000    
   23.0140057         0.00000000    
   23.1407986         0.00000000    
   23.2675915         0.00000000    
   23.3943844         0.00000000    
   23.5211754         0.00000000    
   23.6479683         0.00000000    
   23.7747612         0.00000000    
   23.9015541         0.00000000    
   24.0283470         0.00000000    
   24.1551399         0.00000000    
   24.2819328         0.00000000    
   24.4087238         0.00000000    
   24.5355167         0.00000000    
   24.6623096         0.00000000    
   24.7891026         0.00000000    
   24.9158955         0.00000000    
   25.0426884         0.00000000    
   25.1694813         0.00000000    
   25.2962742         0.00000000    
   25.4230652         0.00000000    
   25.5498581         0.00000000    
   25.6766510         0.00000000    
   25.8034439         0.00000000    
   25.9302368         0.00000000    
   26.0570297         0.00000000    
   26.1838226         0.00000000    
   26.3106136         0.00000000    
   26.4374065         0.00000000    
   26.5641994         0.00000000    
   26.6909924         0.00000000    
   26.8177853         0.00000000    
   26.9445782         0.00000000    
   27.0713711         0.00000000    
   27.1981640         0.00000000    
   27.3249550         0.00000000    
   27.4517479         0.00000000    
   27.5785408         0.00000000    
   27.7053337         0.00000000    
   27.8321266         0.00000000    
   27.9589195         0.00000000    
   28.0857124         0.00000000    
   28.2125034         0.00000000    
   28.3392963         0.00000000    
   28.4660892         0.00000000    
   28.5928822         0.00000000    
   28.7196751         0.00000000    
   28.8464680         0.00000000    
   28.9732609         0.00000000    
   29.1000538        -3.47761408E-33
   29.2268448        -1.35293610E-32
   29.3536377        -2.35810103E-32
   29.4804306        -2.97504778E-32
   29.6072235        -1.67922028E-32
   29.7340164         1.59293164E-32
   29.8608093         5.29724951E-32
   29.9876022         6.67967906E-32
   30.1143932         4.50286100E-32
   30.2411861        -1.73347992E-32
   30.3679790        -9.51833335E-32
   30.4947720        -1.54701322E-31
   30.6215649        -1.58595500E-31
   30.7483578        -3.37756349E-32
   30.8751507         1.19304742E-31
   31.0019417         2.21179865E-31
   31.1287346         2.76955497E-31
   31.2555275         3.43015599E-31
   31.3823204         4.82562624E-31
   31.5091133         6.72534501E-31
   31.6359062         7.62614091E-31
   31.7626991         5.75504214E-31
   31.8894920         1.79840174E-31
   32.0162849        -2.32510173E-31
   32.1430779        -6.16910720E-31
   32.2698708        -8.27958600E-31
   32.3966637        -1.05102586E-30
   32.5234528        -2.22178551E-30
   32.6502457        -4.19205773E-30
   32.7770386        -4.61670272E-30
   32.9038315        -3.11650880E-30
   33.0306244        -7.66420737E-30
   33.1574173        -1.39540937E-29
   33.2842102        -2.01587659E-29
   33.4110031        -2.56993745E-29
   33.5377960        -2.91346045E-29
   33.6645889        -3.44215440E-29
   33.7913818        -3.12297455E-29
   33.9181747        -1.46298724E-29
   34.0449677         1.74617433E-29
   34.1717606         6.66721738E-29
   34.2985535         1.26842396E-28
   34.4253426         1.98236017E-28
   34.5521355         2.79003308E-28
   34.6789284         3.59421211E-28
   34.8057213         4.32849048E-28
   34.9325142         4.94375191E-28
   35.0593071         5.32221351E-28
   35.1861000         5.33151527E-28
   35.3128929         4.92343190E-28
   35.4396858         4.03157804E-28
   35.5664787         2.65243068E-28
   35.6932716         7.11840680E-29
   35.8200645        -1.79494143E-28
   35.9468575        -4.98329847E-28
   36.0736504        -8.89515589E-28
   36.2004433        -1.34599864E-27
   36.3272324        -1.85129323E-27
   36.4540253        -2.37127236E-27
   36.5808182        -2.86624194E-27
   36.7076111        -3.28323292E-27
   36.8344040        -3.56099786E-27
   36.9611969        -3.63956001E-27
   37.0879898        -3.46173543E-27
   37.2147827        -2.97880580E-27
   37.3415756        -2.14704615E-27
   37.4683685        -9.23063074E-28
   37.5951614         7.18690563E-28
   37.7219543         2.78529876E-27
   37.8487473         5.24863365E-27
   37.9755402         8.03760593E-27
   38.1023293         1.10376778E-26
   38.2291222         1.40880158E-26
   38.3559151         1.69838718E-26
   38.4827080         1.94788077E-26
   38.6095009         2.12996342E-26
   38.7362938         2.21529044E-26
   38.8630867         2.17390159E-26
   38.9898796         1.97637067E-26
   39.1166725         1.59557410E-26
   39.2434654         1.00876836E-26
   39.3702583         2.00642284E-27
   39.4970512        -8.33063386E-27
   39.6238441        -2.08155664E-26
   39.7506371        -3.51640203E-26
   39.8774300        -5.08838272E-26
   40.0042191        -6.72645362E-26
   40.1310120        -8.33775625E-26
   40.2578049        -9.80911311E-26
   40.3845978        -1.10096793E-25
   40.5113907        -1.17954057E-25
   40.6381836        -1.20140582E-25
   40.7649765        -1.15130157E-25
   40.8917694        -1.01486524E-25
   41.0185623        -7.79783705E-26
   41.1453552        -4.37118798E-26
   41.2721481         1.72479988E-27
   41.3989410         5.81157773E-26
   41.5257339         1.24481117E-25
   41.6525269         1.98965758E-25
   41.7793198         2.78759951E-25
   41.9061089         3.60067450E-25
   42.0329018         4.38126444E-25
   42.1596947         5.07292733E-25
   42.2864876         5.61192542E-25
   42.4132805         5.92950455E-25
   42.5400734         5.95500053E-25
   42.6668663         5.61974254E-25
   42.7936592         4.86179610E-25
   42.9204521         3.63134960E-25
   43.0472450         1.89656398E-25
   43.1740379        -3.50446126E-26
   43.3008308        -3.08785353E-25
   43.4276237        -6.25899252E-25
   43.5544167        -9.76834725E-25
   43.6812096        -1.34790651E-24
   43.8079987        -1.72124184E-24
   43.9347916        -2.07496727E-24
   44.0615845        -2.38366432E-24
   44.1883774        -2.61913456E-24
   44.3151703        -2.75148807E-24
   44.4419632        -2.75055879E-24
   44.5687561        -2.58764185E-24
   44.6955490        -2.23750219E-24
   44.8223419        -1.68059736E-24
   44.9491348        -9.05416780E-25
   45.0759277         8.91816683E-26
   45.2027206         1.29177442E-24
   45.3295135         2.67647114E-24
   45.4563065         4.20147358E-24
   45.5830994         5.80826964E-24
   45.7098885         7.42162391E-24
   45.8366814         8.95052233E-24
   45.9634743         1.02902077E-23
   46.0902672         1.13254039E-23
   46.2170601         1.19347697E-23
   46.3438530         1.19965864E-23
   46.4706459         1.13955786E-23
   46.5974388         1.00307017E-23
   46.7242317         7.82363689E-24
   46.8510246         4.72765366E-24
   46.9778175         7.36399880E-25
   47.1046104        -4.10786734E-24
   47.2314034        -9.70718114E-24
   47.3581963        -1.59024766E-23
   47.4849892        -2.24705672E-23
   47.6117783        -2.91240283E-23
   47.7385712        -3.55146379E-23
   47.8653641        -4.12407046E-23
   47.9921570        -4.58588037E-23
   48.1189499        -4.88999287E-23
   48.2457428        -4.98900564E-23
   48.3725357        -4.83749355E-23
   48.4993286        -4.39483088E-23
   48.6261215        -3.62829442E-23
   48.7529144        -2.51630946E-23
   48.8797073        -1.05170802E-23
   49.0065002         7.55177570E-24
   49.1332932         2.87377231E-23
   49.2600861         5.25109364E-23
   49.3868790         7.81036036E-23
   49.5136681         1.04506109E-22
   49.6404610         1.30475196E-22
   49.7672539         1.54555888E-22
   49.8940468         1.75118791E-22
   50.0208397         1.90413062E-22
   50.1476326         1.98635605E-22
   50.2744255         1.98016002E-22
   50.4012184         1.86914785E-22
   50.5280113         1.63933273E-22
   50.6548042         1.28031115E-22
   50.7815971         7.86464093E-23
   50.9083900         1.58135215E-23
   51.0351830        -5.97286476E-23
   51.1619759        -1.46444807E-22
   51.2887688        -2.41935915E-22
   51.4155579        -3.42903775E-22
   51.5423508        -4.45155547E-22
   51.6691437        -5.43655622E-22
   51.7959366        -6.32629540E-22
   51.9227295        -7.05725366E-22
   52.0495224        -7.56234375E-22
   52.1763153        -7.77370698E-22
   52.3031082        -7.62605494E-22
   52.4299011        -7.06049897E-22
   52.5566940        -6.02874817E-22
   52.6834869        -4.49753003E-22
   52.8102798        -2.45305929E-22
   52.9370728         9.46920311E-24
   53.0638657         3.10814806E-22
   53.1906586         6.51900112E-22
   53.3174477         1.02261001E-21
   53.4442406         1.40946255E-21
   53.5710335         1.79568552E-21
   53.6978264         2.16147646E-21
   53.8246193         2.48446423E-21
   53.9514122         2.74039060E-21
   54.0782051         2.90400899E-21
   54.2049980         2.95020307E-21
   54.3317909         2.85529762E-21
   54.4585838         2.59853721E-21
   54.5853767         2.16368153E-21
   54.7121696         1.54065883E-21
   54.8389626         7.27197125E-22
   54.9657555        -2.69647955E-22
   55.0925484        -1.43217326E-21
   55.2193375        -2.73102141E-21
   55.3461304        -4.12459516E-21
   55.4729233        -5.55900188E-21
   55.5997162        -6.96862346E-21
   55.7265091        -8.27739767E-21
   55.8533020        -9.40087454E-21
   55.9800949        -1.02490739E-20
   56.1068878        -1.07301344E-20
   56.2336807        -1.07547325E-20
   56.3604736        -1.02411228E-20
   56.4872665        -9.12070911E-21
   56.6140594        -7.34390254E-21
   56.7408524        -4.88602784E-21
   56.8676453        -1.75297020E-21
   56.9944382         2.01376434E-21
   57.1212273         6.33298605E-21
   57.2480202         1.10810803E-20
   57.3748131         1.60910314E-20
   57.5016060         2.11535383E-20
   57.6283989         2.60204913E-20
   57.7551918         3.04111466E-20
   57.8819847         3.40209919E-20
   58.0087776         3.65334431E-20
   58.1355705         3.76341652E-20
   58.2623634         3.70276771E-20
   58.3891563         3.44558756E-20
   58.5159492         2.97176978E-20
   58.6427422         2.26891829E-20
   58.7695351         1.33428474E-20
   58.8963280         1.76534479E-21
   59.0231171        -1.18279331E-20
   59.1499100        -2.70824975E-20
   59.2767029        -4.34999388E-20
   59.4034958        -6.04398320E-20
   59.5302887        -7.71293576E-20
   59.6570816        -9.26814517E-20
   59.7838745        -1.06121844E-19
   59.9106674        -1.16425103E-19
   60.0374603        -1.22559306E-19
   60.1642532        -1.23538235E-19
   60.2910461        -1.18479625E-19
   60.4178391        -1.06667590E-19
   60.5446320        -8.76161660E-20
   60.6714249        -6.11314842E-20
   60.7982178        -2.73681171E-20
   60.9250069         1.31231404E-20
   61.0517998         5.93609623E-20
   61.1785927         1.09915799E-19
   61.3053856         1.62912976E-19
   61.4321785         2.16059253E-19
   61.5589714         2.66695385E-19
   61.6857643         3.11875525E-19
   61.8125572         3.48474364E-19
   61.9393501         3.73319794E-19
   62.0661430         3.83348531E-19
   62.1929359         3.75779803E-19
   62.3197289         3.48301406E-19
   62.4465218         2.99259651E-19
   62.5733147         2.27843927E-19
   62.7001076         1.34256079E-19
   62.8268967         1.98526158E-20
   62.9536896        -1.12751051E-19
   63.0804825        -2.59625731E-19
   63.2072754        -4.15533198E-19
   63.3340683        -5.73998773E-19
   63.4608612        -7.27458665E-19
   63.5876541        -8.67484678E-19
   63.7144470        -9.85086083E-19
   63.8412399        -1.07108526E-18
   63.9680328        -1.11655672E-18
   64.0948257        -1.11331728E-18
   64.2216187        -1.05444859E-18
   64.3484116        -9.34831862E-19
   64.4752045        -7.51663417E-19
   64.6019974        -5.04930536E-19
   64.7287903        -1.97808883E-19
   64.8555832         1.63045390E-19
   64.9823761         5.67339349E-19
   65.1091690         1.00114962E-18
   65.2359619         1.44711567E-18
   65.3627548         1.88483215E-18
   65.4895477         2.29145284E-18
   65.6163330         2.64250022E-18
   65.7431259         2.91286938E-18
   65.8699188         3.07799944E-18
   65.9967117         3.11518266E-18
   66.1235046         3.00495071E-18
   66.2502975         2.73249003E-18
   66.3770905         2.28901307E-18
   66.5038834         1.67300815E-18
   66.6306763         8.91294038E-19
   66.7574692        -4.02086001E-20
   66.8842621        -1.09605371E-18
   67.0110550        -2.24127006E-18
   67.1378479        -3.43184311E-18
   67.2646408        -4.61570049E-18
   67.3914337        -5.73423852E-18
   67.5182266        -6.72436378E-18
   67.6450195        -7.52102722E-18
   67.7718124        -8.06018355E-18
   67.8986053        -8.28205572E-18
   68.0253983        -8.13464552E-18
   68.1521912        -7.57725317E-18
   68.2789841        -6.58392465E-18
   68.4057770        -5.14657591E-18
   68.5325699        -3.27763618E-18
   68.6593628        -1.01200419E-18
   68.7861557         1.59185998E-18
   68.9129486         4.45185462E-18
   69.0397415         7.46332393E-18
   69.1665344         1.05013739E-17
   69.2933273         1.34244490E-17
   69.4201126         1.60791834E-17
   69.5469055         1.83063623E-17
   69.6736984         1.99479303E-17
   69.8004913         2.08547204E-17
   69.9272842         2.08947196E-17
   70.0540771         1.99614084E-17
   70.1808701         1.79818891E-17
   70.3076630         1.49242904E-17
   70.4344559         1.08040641E-17
   70.5612488         5.68870884E-18
   70.6880417        -2.99472857E-19
   70.8148346        -6.98294375E-18
   70.9416275        -1.41311019E-17
   71.0684204        -2.14652591E-17
   71.1952133        -2.86664305E-17
   71.3220062        -3.53859727E-17
   71.4487991        -4.12587565E-17
   71.5755920        -4.59185825E-17
   71.7023849        -4.90153151E-17
   71.8291779        -5.02330573E-17
   71.9559708        -4.93087260E-17
   72.0827637        -4.60500083E-17
   72.2095566        -4.03518290E-17
   72.3363495        -3.22105586E-17
   72.4631424        -2.17346884E-17
   72.5899353        -9.15151767E-18
   72.7167282         5.19124573E-18
   72.8435211         2.08292664E-17
   72.9703140         3.71913374E-17
   73.0971069         5.36150779E-17
   73.2238922         6.93684382E-17
   73.3506851         8.36767040E-17
   73.4774780         9.57539843E-17
   73.6042709         1.04838419E-16
   73.7310638         1.10229539E-16
   73.8578568         1.11326414E-16
   73.9846497         1.07664578E-16
   74.1114426         9.89503690E-17
   74.2382355         8.50901572E-17
   74.3650284         6.62131875E-17
   74.4918213         4.26860368E-17
   74.6186142         1.51173246E-17
   74.7454071        -1.56483348E-17
   74.8722000        -4.85478919E-17
   74.9989929        -8.23291871E-17
   75.1257858        -1.15591489E-16
   75.2525787        -1.46836510E-16
   75.3793716        -1.74528373E-16
   75.5061646        -1.97160206E-16
   75.6329575        -2.13325036E-16
   75.7597504        -2.21788232E-16
   75.8865433        -2.21557468E-16
   76.0133362        -2.11947337E-16
   76.1401291        -1.92635065E-16
   76.2669220        -1.63703702E-16
   76.3937149        -1.25669726E-16
   76.5205078        -7.94929039E-17
   76.6473007        -2.65662404E-17
   76.7740936         3.13151191E-17
   76.9008865         9.20060224E-17
   77.0276718         1.53083643E-16
   77.1544647         2.11938284E-16
   77.2812576         2.65879433E-16
   77.4080505         3.12253508E-16
   77.5348434         3.48568087E-16
   77.6616364         3.72617814E-16
   77.7884293         3.82605232E-16
   77.9152222         3.77251243E-16
   78.0420151         3.55888278E-16
   78.1688080         3.18531346E-16
   78.2956009         2.65921044E-16
   78.4223938         1.99535048E-16
   78.5491867         1.21565083E-16
   78.6759796         3.48578079E-17
   78.8027725        -5.71795547E-17
   78.9295654        -1.50706789E-16
   79.0563583        -2.41608340E-16
   79.1831512        -3.25673819E-16
   79.3099442        -3.98795923E-16
   79.4367371        -4.57175657E-16
   79.5635300        -4.97526030E-16
   79.6903229        -5.17263274E-16
   79.8171158        -5.14676489E-16
   79.9439087        -4.89064012E-16
   80.0707016        -4.40828107E-16
   80.1974945        -3.71521065E-16
   80.3242874        -2.83835103E-16
   80.4510803        -1.81533984E-16
   80.5778732        -6.93250741E-17
   80.7046585         4.73259807E-17
   80.8314514         1.62432438E-16
   80.9582443         2.69767950E-16
   81.0850372         3.63180199E-16
   81.2118301         4.36924079E-16
   81.3386230         4.85996853E-16
   81.4654160         5.06461963E-16
   81.5922089         4.95739532E-16
   81.7190018         4.52848166E-16
   81.8457947         3.78582593E-16
   81.9725876         2.75610148E-16
   82.0993805         1.48477848E-16
   82.2261734         3.51826302E-18
   82.3529663        -1.51345491E-16
   82.4797592        -3.06895575E-16
   82.6065521        -4.53010531E-16
   82.7333450        -5.79137814E-16
   82.8601379        -6.74832790E-16
   82.9869308        -7.30339071E-16
   83.1137238        -7.37187968E-16
   83.2405167        -6.88787234E-16
   83.3673096        -5.80965711E-16
   83.4941025        -4.12448982E-16
   83.6208954        -1.85226650E-16
   83.7476883         9.52079194E-17
   83.8744812         4.19773514E-16
   84.0012741         7.75893297E-16
   84.1280670         1.14776331E-15
   84.2548599         1.51681853E-15
   84.3816528         1.86237240E-15
   84.5084381         2.16243361E-15
   84.6352310         2.39465193E-15
   84.7620239         2.53739455E-15
   84.8888168         2.57087586E-15
   85.0156097         2.47832332E-15
   85.1424026         2.24710345E-15
   85.2691956         1.86977017E-15
   85.3959885         1.34497185E-15
   85.5227814         6.78158453E-16
   85.6495743        -1.17953044E-16
   85.7763672        -1.02320235E-15
   85.9031601        -2.01013476E-15
   86.0299530        -3.04448459E-15
   86.1567459        -4.08601452E-15
   86.2835388        -5.08970536E-15
   86.4103317        -6.00725676E-15
   86.5371246        -6.78887039E-15
   86.6639175        -7.38527349E-15
   86.7907104        -7.74988645E-15
   86.9175034        -7.84108225E-15
   87.0442963        -7.62441461E-15
   87.1710892        -7.07476942E-15
   87.2978821        -6.17827399E-15
   87.4246750        -4.93393304E-15
   87.5514679        -3.35483492E-15
   87.6782608        -1.46890527E-15
   87.8050537         6.80896434E-16
   87.9318466         3.03699873E-15
   88.0586395         5.52822575E-15
   88.1854324         8.07148283E-15
   88.3122177         1.05740341E-14
   88.4390106         1.29363403E-14
   88.5658035         1.50553957E-14
   88.6925964         1.68284881E-14
   88.8193893         1.81571795E-14
   88.9461823         1.89514830E-14
   89.0729752         1.91339915E-14
   89.1997681         1.86438186E-14
   89.3265610         1.74402237E-14
   89.4533539         1.55056953E-14
   89.5801468         1.28484065E-14
   89.7069397         9.50382995E-15
   89.8337326         5.53545984E-15
   89.9605255         1.03450516E-15
   90.0873184        -3.88144166E-15
   90.2141113        -9.07086397E-15
   90.3409042        -1.43717774E-14
   90.4676971        -1.96062513E-14
   90.5944901        -2.45857293E-14
   90.7212830        -2.91171675E-14
   90.8480759        -3.30097176E-14
   90.9748688        -3.60817231E-14
   91.1016617        -3.81678941E-14
   91.2284546        -3.91262543E-14
   91.3552475        -3.88448022E-14
   91.4820404        -3.72473658E-14
   91.6088333        -3.42986442E-14
   91.7356262        -3.00080260E-14
   91.8624191        -2.44320538E-14
   91.9892120        -1.76753635E-14
   92.1159973        -9.88995076E-15
   92.2427902        -1.27274239E-15
   92.3695831         7.93867654E-15
   92.4963760         1.74718536E-14
   92.6231689         2.70270222E-14
   92.7499619         3.62859123E-14
   92.8767548         4.49218164E-14
   93.0035477         5.26104734E-14
   93.1303406         5.90415371E-14
   93.2571335         6.39301437E-14
   93.3839264         6.70282650E-14
   93.5107193         6.81354658E-14
   93.6375122         6.71084214E-14
   93.7643051         6.38690896E-14
   93.8910980         5.84109922E-14
   94.0178909         5.08032811E-14
   94.1446838         4.11923506E-14
   94.2714767         2.98008451E-14
   94.3982697         1.69238538E-14
   94.5250626         2.92230708E-15
   94.6518555        -1.17863288E-14
   94.7786484        -2.67398306E-14
   94.9054413        -4.14453933E-14
   95.0322342        -5.53955075E-14
   95.1590271        -6.80853892E-14
   95.2858200        -7.90311352E-14
   95.4126129        -8.77882226E-14
   95.5394058        -9.39695370E-14
   95.6661987        -9.72622455E-14
   95.7929916        -9.74429549E-14
   95.9197769        -9.43903430E-14
   96.0465698        -8.80946859E-14
   96.1733627        -7.86638007E-14
   96.3001556        -6.63248956E-14
   96.4269485        -5.14220861E-14
   96.5537415        -3.44092058E-14
   96.6805344        -1.58381846E-14
   96.8073273         3.65699741E-15
   96.9341202         2.33803946E-14
   97.0609131         4.25978663E-14
   97.1877060         6.05635876E-14
   97.3144989         7.65484274E-14
   97.4412918         8.98696672E-14
   97.5680847         9.99203094E-14
   97.6948776         1.06197406E-13
   97.8216705         1.08327748E-13
   97.9484634         1.06090226E-13
   98.0752563         9.94329808E-14