  -4.50000000         0.00000000    
  -4.37320757         0.00000000    
  -4.24641466         0.00000000    
  -4.11962223         0.00000000    
  -3.99282932         1.38581656E-23
  -3.86603665        -4.67306509E-22
  -3.73924398        -5.00739115E-21
  -3.61245155        -2.43511907E-20
  -3.48565888        -7.36021690E-20
  -3.35886621        -1.44653520E-19
  -3.23207355        -1.45031632E-19
  -3.10528088         1.61620636E-19
  -2.97848821         1.11967540E-18
  -2.85169554         2.95422655E-18
  -2.72490287         5.37622317E-18
  -2.59811020         7.24549419E-18
  -2.47131753         6.61233830E-18
  -2.34452486         1.23878062E-18
  -2.21773219        -1.08019605E-17
  -2.09093952        -3.12056963E-17
  -1.96414697        -6.25536015E-17
  -1.83735430        -1.09466177E-16
  -1.71056163        -1.77263111E-16
  -1.58376896        -2.65516612E-16
  -1.45697629        -3.56666595E-16
  -1.33018374        -4.05164234E-16
  -1.20339108        -3.37530506E-16
  -1.07659841        -7.38181934E-17
 -0.949805737         4.27001511E-16
 -0.823013067         1.11024822E-15
 -0.696220458         1.78557340E-15
 -0.569427788         2.13880520E-15
 -0.442635119         1.82021303E-15
 -0.315842479         6.05049346E-16
 -0.189049825        -1.41681761E-15
  -6.22571707E-02    -3.69894841E-15
   6.45354837E-02    -5.23117553E-15
  0.191328138        -4.72942498E-15
  0.318120778        -1.02439328E-15
  0.444913447         6.43015448E-15
  0.571706116         1.70833552E-14
  0.698498726         2.90381224E-14
  0.825291395         3.91910896E-14
  0.952084064         4.38294759E-14
   1.07887673         3.96067185E-14
   1.20566940         2.46655774E-14
   1.33246195        -4.24508508E-16
   1.45925462        -3.22527039E-14
   1.58604729        -6.48970013E-14
   1.71283996        -9.10120029E-14
   1.83963263        -1.03446602E-13
   1.96642530        -9.69759483E-14
   2.09321785        -6.96754124E-14
   2.22001052        -2.35682632E-14
   2.34680319         3.55801204E-14
   2.47359586         9.91612052E-14
   2.60038853         1.56936598E-13
   2.72718120         1.98139858E-13
   2.85397387         2.12206283E-13
   2.98076653         1.89191287E-13
   3.10755920         1.20280725E-13
   3.23435187        -1.02019570E-15
   3.36114454        -1.76545939E-13
   3.48793697        -3.99954728E-13
   3.61472964        -6.52708356E-13
   3.74152231        -9.00903375E-13
   3.86831498        -1.09471568E-12
   3.99510765        -1.17207025E-12
   4.12190056        -1.06734315E-12
   4.24869299        -7.24559030E-13
   4.37548542        -1.12967436E-13
   4.50227833         7.58413406E-13
   4.62907076         1.83125693E-12
   4.75586367         2.99683802E-12
   4.88265610         4.10521356E-12
   5.00944901         4.98408433E-12
   5.13624144         5.46415647E-12
   5.26303434         5.40583507E-12
   5.38982677         4.72134051E-12
   5.51661968         3.38714256E-12
   5.64341211         1.44400453E-12
   5.77020502        -1.01481909E-12
   5.89699745        -3.86345383E-12
   6.02379036        -6.96523525E-12
   6.15058279        -1.01900910E-11
   6.27737522        -1.34228774E-11
   6.40416813        -1.65619098E-11
   6.53096056        -1.95115053E-11
   6.65775347        -2.21766269E-11
   6.78454590        -2.44696451E-11
   6.91133881        -2.63379232E-11
   7.03813124        -2.78156873E-11
   7.16492414        -2.90953286E-11
   7.29171658        -3.06033254E-11
   7.41850948        -3.30574387E-11
   7.54530191        -3.74762200E-11
   7.67209482        -4.51136697E-11
   7.79888725        -5.73000224E-11
   7.92567968        -7.51841714E-11
   8.05247211        -9.93938890E-11
   8.17926502        -1.29648389E-10
   8.30605793        -1.64372904E-10
   8.43285084        -2.00372302E-10
   8.55964279        -2.32614053E-10
   8.68643570        -2.54155169E-10
   8.81322861        -2.56227178E-10
   8.94002151        -2.28465302E-10
   9.06681347        -1.59257732E-10
   9.19360638        -3.61867168E-11
   9.32039928         1.53443799E-10
   9.44719219         4.21962271E-10
   9.57398415         7.80481291E-10
   9.70077705         1.23771904E-09
   9.82756996         1.79833004E-09
   9.95436192         2.46059639E-09
   10.0811548         3.21340665E-09
   10.2079477         4.03255251E-09
   10.3347406         4.87656138E-09
   10.4615326         5.68249492E-09
   10.5883255         6.36234265E-09
   10.7151184         6.80078838E-09
   10.8419113         6.85526924E-09
   10.9687033         6.35912567E-09
   11.0954962         5.12858112E-09
   11.2222891         2.97385028E-09
   11.3490820        -2.85651836E-10
   11.4758739        -4.80265205E-09
   11.6026669        -1.06810933E-08
   11.7294598        -1.79547044E-08
   11.8562517        -2.65673741E-08
   11.9830446        -3.63580206E-08
   12.1098375        -4.70529926E-08
   12.2366304        -5.82690269E-08
   12.3634224        -6.95301665E-08
   12.4902153        -8.03012910E-08
   12.6170082        -9.00413326E-08
   12.7438011        -9.82783135E-08
   12.8705931        -1.04707865E-07
   12.9973860        -1.09316623E-07
   13.1241789        -1.12529861E-07
   13.2509708        -1.15382832E-07
   13.3777637        -1.19713306E-07
   13.5045567        -1.28370672E-07
   13.6313496        -1.45436999E-07
   13.7581415        -1.76451692E-07
   13.8849344        -2.28631563E-07
   14.0117273        -3.11076036E-07
   14.1385202        -4.34945804E-07
   14.2653122        -6.13605380E-07
   14.3921051        -8.62714785E-07
   14.5188980        -1.20026334E-06
   14.6456909        -1.64653466E-06
   14.7724829        -2.22399490E-06
   14.8992758        -2.95710333E-06
   15.0260687        -3.87203863E-06
   15.1528606        -4.99634507E-06
   15.2796535        -6.35850847E-06
   15.4064465        -7.98745623E-06
   15.5332394        -9.91200886E-06
   15.6600313        -1.21602861E-05
   15.7868242        -1.47590681E-05
   15.9136171        -1.77331913E-05
   16.0404091        -2.11048755E-05
   16.1672020        -2.48931356E-05
   16.2939949        -2.91131782E-05
   16.4207878        -3.37758756E-05
   16.5475807        -3.88872722E-05
   16.6743736        -4.44481775E-05
   16.8011646        -5.04537747E-05
   16.9279575        -5.68933792E-05
   17.0547504        -6.37502089E-05
   17.1815434        -7.10013119E-05
   17.3083363        -7.86174714E-05
   17.4351292        -8.65633046E-05
   17.5619221        -9.47974549E-05
   17.6887150        -1.03272861E-04
   17.8155060        -1.11937115E-04
   17.9422989        -1.20733064E-04
   18.0690918        -1.29599415E-04
   18.1958847        -1.38471471E-04
   18.3226776        -1.47282190E-04
   18.4494705        -1.55963004E-04
   18.5762634        -1.64445184E-04
   18.7030544        -1.72660773E-04
   18.8298473        -1.80544026E-04
   18.9566402        -1.88032587E-04
   19.0834332        -1.95068729E-04
   19.2102261        -2.01600516E-04
   19.3370190        -2.07582882E-04
   19.4638119        -2.12978543E-04
   19.5906048        -2.17758745E-04
   19.7173958        -2.21903814E-04
   19.8441887        -2.25403448E-04
   19.9709816        -2.28256627E-04
   20.0977745        -2.30471938E-04
   20.2245674        -2.32066493E-04
   20.3513603        -2.33065875E-04
   20.4781532        -2.33502797E-04
   20.6049442        -2.33416533E-04
   20.7317371        -2.32851584E-04
   20.8585300        -2.31856669E-04
   20.9853230        -2.30483507E-04
   21.1121159        -2.28785691E-04
   21.2389088        -2.26817763E-04
   21.3657017        -2.24634248E-04
   21.4924946        -2.22289105E-04
   21.6192856        -2.19834998E-04
   21.7460785        -2.17323002E-04
   21.8728714        -2.14802567E-04
   21.9996643        -2.12321349E-04
   22.1264572        -2.09925420E-04
   22.2532501        -2.07659366E-04
   22.3800430        -2.05566306E-04
   22.5068340        -2.03688513E-04
   22.6336269        -2.02066905E-04
   22.7604198        -2.00741459E-04
   22.8872128        -1.99750677E-04
   23.0140057        -1.99131493E-04
   23.1407986        -1.98918278E-04
   23.2675915        -1.99142334E-04
   23.3943844        -1.99830814E-04
   23.5211754        -2.01005460E-04
   23.6479683        -2.02681767E-04
   23.7747612        -2.04867320E-04
   23.9015541        -2.07560937E-04
   24.0283470        -2.10751750E-04
   24.1551399        -2.14417989E-04
   24.2819328        -2.18527028E-04
   24.4087238        -2.23034862E-04
   24.5355167        -2.27886499E-04
   24.6623096        -2.33016763E-04
   24.7891026        -2.38351495E-04
   24.9158955        -2.43809118E-04
   25.0426884        -2.49302684E-04
   25.1694813        -2.54742248E-04
   25.2962742        -2.60037486E-04
   25.4230652        -2.65100942E-04
   25.5498581        -2.69850134E-04
   25.6766510        -2.74211139E-04
   25.8034439        -2.78121122E-04
   25.9302368        -2.81530840E-04
   26.0570297        -2.84406560E-04
   26.1838226        -2.86731927E-04
   26.3106136        -2.88509123E-04
   26.4374065        -2.89759220E-04
   26.5641994        -2.90522294E-04
   26.6909924        -2.90856551E-04
   26.8177853        -2.90837343E-04
   26.9445782        -2.90554948E-04
   27.0713711        -2.90112570E-04
   27.1981640        -2.89623305E-04
   27.3249550        -2.89207353E-04
   27.4517479        -2.88988376E-04
   27.5785408        -2.89090560E-04
   27.7053337        -2.89634976E-04
   27.8321266        -2.90736614E-04
   27.9589195        -2.92501558E-04
   28.0857124        -2.95023900E-04
   28.2125034        -2.98384140E-04
   28.3392963        -3.02647270E-04
   28.4660892        -3.07861599E-04
   28.5928822        -3.14057892E-04
   28.7196751        -3.21249594E-04
   28.8464680        -3.29432194E-04
   28.9732609        -3.38585203E-04
   29.1000538        -3.48672009E-04
   29.2268448        -3.59641796E-04
   29.3536377        -3.71431262E-04
   29.4804306        -3.83965962E-04
   29.6072235        -3.97163007E-04
   29.7340164        -4.10932000E-04
   29.8608093        -4.25178237E-04
   29.9876022        -4.39803873E-04
   30.1143932        -4.54710244E-04
   30.2411861        -4.69799706E-04
   30.3679790        -4.84977063E-04
   30.4947720        -5.00151480E-04
   30.6215649        -5.15237218E-04
   30.7483578        -5.30155841E-04
   30.8751507        -5.44835697E-04
   31.0019417        -5.59213629E-04
   31.1287346        -5.73235564E-04
   31.2555275        -5.86855982E-04
   31.3823204        -6.00038096E-04
   31.5091133        -6.12754549E-04
   31.6359062        -6.24985667E-04
   31.7626991        -6.36719691E-04
   31.8894920        -6.47951267E-04
   32.0162849        -6.58681034E-04
   32.1430779        -6.68913359E-04
   32.2698708        -6.78655575E-04
   32.3966637        -6.87916239E-04
   32.5234528        -6.96703268E-04
   32.6502457        -7.05021666E-04
   32.7770386        -7.12872541E-04
   32.9038315        -7.20250828E-04
   33.0306244        -7.27143371E-04
   33.1574173        -7.33527937E-04
   33.2842102        -7.39371579E-04
   33.4110031        -7.44629710E-04
   33.5377960        -7.49245926E-04
   33.6645889        -7.53151195E-04
   33.7913818        -7.56264548E-04
   33.9181747        -7.58494134E-04
   34.0449677        -7.59738497E-04
   34.1717606        -7.59887975E-04
   34.2985535        -7.58827780E-04
   34.4253426        -7.56440335E-04
   34.5521355        -7.52608757E-04
   34.6789284        -7.47220416E-04
   34.8057213        -7.40170246E-04
   34.9325142        -7.31364707E-04
   35.0593071        -7.20725511E-04
   35.1861000        -7.08193344E-04
   35.3128929        -6.93730486E-04
   35.4396858        -6.77324308E-04
   35.5664787        -6.58989069E-04
   35.6932716        -6.38768019E-04
   35.8200645        -6.16733741E-04
   35.9468575        -5.92989381E-04
   36.0736504        -5.67667594E-04
   36.2004433        -5.40929381E-04
   36.3272324        -5.12962579E-04
   36.4540253        -4.83979005E-04
   36.5808182        -4.54211637E-04
   36.7076111        -4.23910562E-04
   36.8344040        -3.93338647E-04
   36.9611969        -3.62767489E-04
   37.0879898        -3.32472147E-04
   37.2147827        -3.02726403E-04
   37.3415756        -2.73797486E-04
   37.4683685        -2.45941425E-04
   37.5951614        -2.19398120E-04
   37.7219543        -1.94386914E-04
   37.8487473        -1.71102976E-04
   37.9755402        -1.49713363E-04
   38.1023293        -1.30354514E-04
   38.2291222        -1.13130052E-04
   38.3559151        -9.81092235E-05
   38.4827080        -8.53262682E-05
   38.6095009        -7.47803788E-05
   38.7362938        -6.64364561E-05
   38.8630867        -6.02264663E-05
   38.9898796        -5.60514854E-05
   39.1166725        -5.37842498E-05
   39.2434654        -5.32721206E-05
   39.3702583        -5.43406059E-05
   39.4970512        -5.67970201E-05
   39.6238441        -6.04345259E-05
   39.7506371        -6.50361981E-05
   39.8774300        -7.03792393E-05
   40.0042191        -7.62391646E-05
   40.1310120        -8.23939627E-05
   40.2578049        -8.86280031E-05
   40.3845978        -9.47358712E-05
   40.5113907        -1.00525926E-04
   40.6381836        -1.05823339E-04
   40.7649765        -1.10473004E-04
   40.8917694        -1.14341870E-04
   41.0185623        -1.17320793E-04
   41.1453552        -1.19325894E-04
   41.2721481        -1.20299366E-04
   41.3989410        -1.20209595E-04
   41.5257339        -1.19050928E-04
   41.6525269        -1.16842581E-04
   41.7793198        -1.13627335E-04
   41.9061089        -1.09469365E-04
   42.0329018        -1.04452018E-04
   42.1596947        -9.86750965E-05
   42.2864876        -9.22517793E-05
   42.4132805        -8.53054953E-05
   42.5400734        -7.79669135E-05
   42.6668663        -7.03705155E-05
   42.7936592        -6.26520050E-05
   42.9204521        -5.49452561E-05
   43.0472450        -4.73800974E-05
   43.1740379        -4.00802128E-05
   43.3008308        -3.31615047E-05
   43.4276237        -2.67307969E-05
   43.5544167        -2.08851252E-05
   43.6812096        -1.57110953E-05
   43.8079987        -1.12847392E-05
   43.9347916        -7.67150777E-06
   44.0615845        -4.92648269E-06
   44.1883774        -3.09458073E-06
   44.3151703        -2.21084633E-06
   44.4419632        -2.30062915E-06
   44.5687561        -3.37969482E-06
   44.6955490        -5.45417470E-06
   44.8223419        -8.52038738E-06
   44.9491348        -1.25645529E-05
   45.0759277        -1.75623463E-05
   45.2027206        -2.34784438E-05
   45.3295135        -3.02660064E-05
   45.4563065        -3.78662698E-05
   45.5830994        -4.62082753E-05
   45.7098885        -5.52087295E-05
   45.8366814        -6.47722482E-05
   45.9634743        -7.47918748E-05
   46.0902672        -8.51499208E-05
   46.2170601        -9.57193115E-05
   46.3438530        -1.06365289E-04
   46.4706459        -1.16947420E-04
   46.5974388        -1.27322099E-04
   46.7242317        -1.37345327E-04
   46.8510246        -1.46875522E-04
   46.9778175        -1.55776579E-04
   47.1046104        -1.63921039E-04
   47.2314034        -1.71192936E-04
   47.3581963        -1.77490612E-04
   47.4849892        -1.82729185E-04
   47.6117783        -1.86842401E-04
   47.7385712        -1.89784463E-04
   47.8653641        -1.91531071E-04
   47.9921570        -1.92079737E-04
   48.1189499        -1.91450075E-04
   48.2457428        -1.89683036E-04
   48.3725357        -1.86839898E-04
   48.4993286        -1.83000855E-04
   48.6261215        -1.78262722E-04
   48.7529144        -1.72737069E-04
   48.8797073        -1.66547470E-04
   49.0065002        -1.59826755E-04
   49.1332932        -1.52714420E-04
   49.2600861        -1.45353479E-04
   49.3868790        -1.37887982E-04
   49.5136681        -1.30460234E-04
   49.6404610        -1.23208374E-04
   49.7672539        -1.16264273E-04
   49.8940468        -1.09751309E-04
   50.0208397        -1.03783030E-04
   50.1476326        -9.84616709E-05
   50.2744255        -9.38769808E-05
   50.4012184        -9.01055537E-05
   50.5280113        -8.72102537E-05
   50.6548042        -8.52398007E-05
   50.7815971        -8.42286317E-05
   50.9083900        -8.41967849E-05
   51.0351830        -8.51500081E-05
   51.1619759        -8.70798394E-05
   51.2887688        -8.99637744E-05
   51.4155579        -9.37656441E-05
   51.5423508        -9.84357321E-05
   51.6691437        -1.03911298E-04
   51.7959366        -1.10117020E-04
   51.9227295        -1.16965755E-04
   52.0495224        -1.24359256E-04
   52.1763153        -1.32189190E-04
   52.3031082        -1.40338569E-04
   52.4299011        -1.48683175E-04
   52.5566940        -1.57093498E-04
   52.6834869        -1.65436824E-04
   52.8102798        -1.73579683E-04
   52.9370728        -1.81390409E-04
   53.0638657        -1.88741964E-04
   53.1906586        -1.95514673E-04
   53.3174477        -2.01599221E-04
   53.4442406        -2.06899233E-04
   53.5710335        -2.11333769E-04
   53.6978264        -2.14839572E-04
   53.8246193        -2.17372450E-04
   53.9514122        -2.18908739E-04
   54.0782051        -2.19445617E-04
   54.2049980        -2.19001216E-04
   54.3317909        -2.17613604E-04
   54.4585838        -2.15339591E-04
   54.5853767        -2.12252591E-04
   54.7121696        -2.08440208E-04
   54.8389626        -2.04001233E-04
   54.9657555        -1.99042581E-04
   55.0925484        -1.93675602E-04
   55.2193375        -1.88013059E-04
   55.3461304        -1.82165633E-04
   55.4729233        -1.76238871E-04
   55.5997162        -1.70330648E-04
   55.7265091        -1.64528828E-04
   55.8533020        -1.58909737E-04
   55.9800949        -1.53536981E-04
   56.1068878        -1.48461040E-04
   56.2336807        -1.43719386E-04
   56.3604736        -1.39337091E-04
   56.4872665        -1.35328257E-04
   56.6140594        -1.31697394E-04
   56.7408524        -1.28441505E-04
   56.8676453        -1.25552178E-04
   56.9944382        -1.23017875E-04
   57.1212273        -1.20826058E-04
   57.2480202        -1.18965188E-04
   57.3748131        -1.17426418E-04
   57.5016060        -1.16205047E-04
   57.6283989        -1.15301169E-04
   57.7551918        -1.14720198E-04
   57.8819847        -1.14472605E-04
   58.0087776        -1.14573319E-04
   58.1355705        -1.15040362E-04
   58.2623634        -1.15893476E-04
   58.3891563        -1.17152107E-04
   58.5159492        -1.18833370E-04
   58.6427422        -1.20949793E-04
   58.7695351        -1.23507343E-04
   58.8963280        -1.26503350E-04
   59.0231171        -1.29924912E-04
   59.1499100        -1.33747628E-04
   59.2767029        -1.37934941E-04
   59.4034958        -1.42437711E-04
   59.5302887        -1.47194805E-04
   59.6570816        -1.52133885E-04
   59.7838745        -1.57173126E-04
   59.9106674        -1.62223208E-04
   60.0374603        -1.67189894E-04
   60.1642532        -1.71976950E-04
   60.2910461        -1.76489339E-04
   60.4178391        -1.80636387E-04
   60.5446320        -1.84335178E-04
   60.6714249        -1.87513622E-04
   60.7982178        -1.90113104E-04
   60.9250069        -1.92090956E-04
   61.0517998        -1.93422078E-04
   61.1785927        -1.94100459E-04
   61.3053856        -1.94139328E-04
   61.4321785        -1.93571119E-04
   61.5589714        -1.92446474E-04
   61.6857643        -1.90832696E-04
   61.8125572        -1.88811435E-04
   61.9393501        -1.86475896E-04
   62.0661430        -1.83927812E-04
   62.1929359        -1.81273732E-04
   62.3197289        -1.78621500E-04
   62.4465218        -1.76076544E-04
   62.5733147        -1.73738197E-04
   62.7001076        -1.71696476E-04
   62.8268967        -1.70029176E-04
   62.9536896        -1.68799364E-04
   63.0804825        -1.68053593E-04
   63.2072754        -1.67820792E-04
   63.3340683        -1.68111816E-04
   63.4608612        -1.68919651E-04
   63.5876541        -1.70220446E-04
   63.7144470        -1.71975116E-04
   63.8412399        -1.74131492E-04
   63.9680328        -1.76626883E-04
   64.0948257        -1.79390991E-04
   64.2216187        -1.82348784E-04
   64.3484116        -1.85423996E-04
   64.4752045        -1.88541570E-04
   64.6019974        -1.91630796E-04
   64.7287903        -1.94627442E-04
   64.8555832        -1.97475616E-04
   64.9823761        -2.00129260E-04
   65.1091690        -2.02552779E-04
   65.2359619        -2.04721277E-04
   65.3627548        -2.06620083E-04
   65.4895477        -2.08243946E-04
   65.6163330        -2.09595310E-04
   65.7431259        -2.10682745E-04
   65.8699188        -2.11518796E-04
   65.9967117        -2.12117768E-04
   66.1235046        -2.12493280E-04
   66.2502975        -2.12656174E-04
   66.3770905        -2.12612838E-04
   66.5038834        -2.12363229E-04
   66.6306763        -2.11899896E-04
   66.7574692        -2.11207618E-04
   66.8842621        -2.10263068E-04
   67.0110550        -2.09035701E-04
   67.1378479        -2.07488702E-04
   67.2646408        -2.05581004E-04
   67.3914337        -2.03269141E-04
   67.5182266        -2.00509981E-04
   67.6450195        -1.97263435E-04
   67.7718124        -1.93495216E-04
   67.8986053        -1.89179744E-04
   68.0253983        -1.84302698E-04
   68.1521912        -1.78863309E-04
   68.2789841        -1.72876156E-04
   68.4057770        -1.66372643E-04
   68.5325699        -1.59401723E-04
   68.6593628        -1.52029694E-04
   68.7861557        -1.44340098E-04
   68.9129486        -1.36432078E-04
   69.0397415        -1.28418789E-04
   69.1665344        -1.20424826E-04
   69.2933273        -1.12583468E-04
   69.4201126        -1.05033323E-04
   69.5469055        -9.79147590E-05
   69.6736984        -9.13663680E-05
   69.8004913        -8.55211620E-05
   69.9272842        -8.05030359E-05
   70.0540771        -7.64234501E-05
   70.1808701        -7.33783745E-05
   70.3076630        -7.14459020E-05
   70.4344559        -7.06840874E-05
   70.5612488        -7.11295288E-05
   70.6880417        -7.27966326E-05
   70.8148346        -7.56772861E-05
   70.9416275        -7.97413231E-05
   71.0684204        -8.49374846E-05
   71.1952133        -9.11948373E-05
   71.3220062        -9.84249491E-05
   71.4487991        -1.06523941E-04
   71.5755920        -1.15375391E-04
   71.7023849        -1.24853061E-04
   71.8291779        -1.34823873E-04
   71.9559708        -1.45151003E-04
   72.0827637        -1.55696602E-04
   72.2095566        -1.66324608E-04
   72.3363495        -1.76903108E-04
   72.4631424        -1.87306607E-04
   72.5899353        -1.97417699E-04
   72.7167282        -2.07128498E-04
   72.8435211        -2.16341461E-04
   72.9703140        -2.24970339E-04
   73.0971069        -2.32939972E-04
   73.2238922        -2.40186535E-04
   73.3506851        -2.46657000E-04
   73.4774780        -2.52308440E-04
   73.6042709        -2.57107575E-04
   73.7310638        -2.61029578E-04
   73.8578568        -2.64057424E-04
   73.9846497        -2.66181014E-04
   74.1114426        -2.67396332E-04
   74.2382355        -2.67704949E-04
   74.3650284        -2.67113413E-04
   74.4918213        -2.65633309E-04
   74.6186142        -2.63280701E-04
   74.7454071        -2.60076922E-04
   74.8722000        -2.56048486E-04
   74.9989929        -2.51227844E-04
   75.1257858        -2.45653908E-04
   75.2525787        -2.39372894E-04
   75.3793716        -2.32438921E-04
   75.5061646        -2.24914460E-04
   75.6329575        -2.16870962E-04
   75.7597504        -2.08388927E-04
   75.8865433        -1.99557922E-04
   76.0133362        -1.90475781E-04
   76.1401291        -1.81248120E-04
   76.2669220        -1.71986743E-04
   76.3937149        -1.62808341E-04
   76.5205078        -1.53832356E-04
   76.6473007        -1.45178710E-04
   76.7740936        -1.36965318E-04
   76.9008865        -1.29305583E-04
   77.0276718        -1.22305428E-04
   77.1544647        -1.16060968E-04
   77.2812576        -1.10655848E-04
   77.4080505        -1.06158994E-04
   77.5348434        -1.02622857E-04
   77.6616364        -1.00081816E-04
   77.7884293        -9.85513470E-05
   77.9152222        -9.80274563E-05
   78.0420151        -9.84869475E-05
   78.1688080        -9.98881223E-05
   78.2956009        -1.02172002E-04
   78.4223938        -1.05264189E-04
   78.5491867        -1.09077031E-04
   78.6759796        -1.13512382E-04
   78.8027725        -1.18464362E-04
   78.9295654        -1.23822625E-04
   79.0563583        -1.29475477E-04
   79.1831512        -1.35312905E-04
   79.3099442        -1.41229844E-04
   79.4367371        -1.47128623E-04
   79.5635300        -1.52921566E-04
   79.6903229        -1.58532828E-04
   79.8171158        -1.63899880E-04
   79.9439087        -1.68974337E-04
   80.0707016        -1.73722306E-04
   80.1974945        -1.78123897E-04
   80.3242874        -1.82172662E-04
   80.4510803        -1.85873869E-04
   80.5778732        -1.89242812E-04
   80.7046585        -1.92302497E-04
   80.8314514        -1.95081084E-04
   80.9582443        -1.97609363E-04
   81.0850372        -1.99917980E-04
   81.2118301        -2.02034920E-04
   81.3386230        -2.03983174E-04
   81.4654160        -2.05778852E-04
   81.5922089        -2.07429461E-04
   81.7190018        -2.08933066E-04
   81.8457947        -2.10277954E-04
   81.9725876        -2.11442428E-04
   82.0993805        -2.12396058E-04
   82.2261734        -2.13100531E-04
   82.3529663        -2.13511914E-04
   82.4797592        -2.13582724E-04
   82.6065521        -2.13264517E-04
   82.7333450        -2.12510684E-04
   82.8601379        -2.11279417E-04
   82.9869308        -2.09536331E-04
   83.1137238        -2.07257021E-04
   83.2405167        -2.04429540E-04
   83.3673096        -2.01055882E-04
   83.4941025        -1.97153495E-04
   83.6208954        -1.92755848E-04
   83.7476883        -1.87912316E-04
   83.8744812        -1.82687887E-04
   84.0012741        -1.77161462E-04
   84.1280670        -1.71424312E-04
   84.2548599        -1.65577570E-04
   84.3816528        -1.59729403E-04
   84.5084381        -1.53991889E-04
   84.6352310        -1.48477775E-04
   84.7620239        -1.43297104E-04
   84.8888168        -1.38553994E-04
   85.0156097        -1.34343587E-04
   85.1424026        -1.30749453E-04
   85.2691956        -1.27841326E-04
   85.3959885        -1.25673396E-04
   85.5227814        -1.24283280E-04
   85.6495743        -1.23691381E-04
   85.7763672        -1.23900885E-04
   85.9031601        -1.24898506E-04
   86.0299530        -1.26655286E-04
   86.1567459        -1.29128268E-04
   86.2835388        -1.32262183E-04
   86.4103317        -1.35991519E-04
   86.5371246        -1.40242555E-04
   86.6639175        -1.44935795E-04
   86.7907104        -1.49987987E-04
   86.9175034        -1.55314352E-04
   87.0442963        -1.60830459E-04
   87.1710892        -1.66454061E-04
   87.2978821        -1.72106505E-04
   87.4246750        -1.77714057E-04
   87.5514679        -1.83208758E-04
   87.6782608        -1.88529390E-04
   87.8050537        -1.93621338E-04
   87.9318466        -1.98437265E-04
   88.0586395        -2.02936615E-04
   88.1854324        -2.07085439E-04
   88.3122177        -2.10855695E-04
   88.4390106        -2.14224885E-04
   88.5658035        -2.17175024E-04
   88.6925964        -2.19692141E-04
   88.8193893        -2.21765411E-04
   88.9461823        -2.23386509E-04
   89.0729752        -2.24549003E-04
   89.1997681        -2.25248194E-04
   89.3265610        -2.25480384E-04
   89.4533539        -2.25243391E-04
   89.5801468        -2.24536008E-04
   89.7069397        -2.23358787E-04
   89.8337326        -2.21714203E-04
   89.9605255        -2.19607260E-04
   90.0873184        -2.17046327E-04
   90.2141113        -2.14043728E-04
   90.3409042        -2.10616548E-04
   90.4676971        -2.06787518E-04
   90.5944901        -2.02585506E-04
   90.7212830        -1.98046197E-04
   90.8480759        -1.93212269E-04
   90.9748688        -1.88133621E-04
   91.1016617        -1.82867137E-04
   91.2284546        -1.77476089E-04
   91.3552475        -1.72029570E-04
   91.4820404        -1.66601341E-04
   91.6088333        -1.61268399E-04
   91.7356262        -1.56109527E-04
   91.8624191        -1.51203567E-04
   91.9892120        -1.46627659E-04
   92.1159973        -1.42455217E-04
   92.2427902        -1.38754272E-04
   92.3695831        -1.35585549E-04
   92.4963760        -1.33001071E-04
   92.6231689        -1.31042674E-04
   92.7499619        -1.29740933E-04
   92.8767548        -1.29114444E-04
   93.0035477        -1.29169246E-04
   93.1303406        -1.29898879E-04
   93.2571335        -1.31284396E-04
   93.3839264        -1.33295238E-04
   93.5107193        -1.35889888E-04
   93.6375122        -1.39017196E-04
   93.7643051        -1.42617602E-04
   93.8910980        -1.46624690E-04
   94.0178909        -1.50966822E-04
   94.1446838        -1.55568690E-04
   94.2714767        -1.60352836E-04
   94.3982697        -1.65241217E-04
   94.5250626        -1.70156491E-04
   94.6518555        -1.75023102E-04
   94.7786484        -1.79768394E-04
   94.9054413        -1.84323450E-04
   95.0322342        -1.88623730E-04
   95.1590271        -1.92609543E-04
   95.2858200        -1.96226683E-04
   95.4126129        -1.99426562E-04
   95.5394058        -2.02166775E-04
   95.6661987        -2.04411117E-04
   95.7929916        -2.06129946E-04
   95.9197769        -2.07300458E-04
   96.0465698        -2.07906880E-04
   96.1733627        -2.07940495E-04
   96.3001556        -2.07400240E-04
   96.4269485        -2.06292301E-04
   96.5537415        -2.04630720E-04
   96.6805344        -2.02436902E-04
   96.8073273        -1.99739923E-04
   96.9341202        -1.96576031E-04
   97.0609131        -1.92988329E-04
   97.1877060        -1.89026643E-04
   97.3144989        -1.84746546E-04
   97.4412918        -1.80208910E-04
   97.5680847        -1.75479116E-04
   97.6948776        -1.70626095E-04
   97.8216705        -1.65721474E-04
   97.9484634        -1.60838463E-04
   98.0752563        -1.56050941E-04