  -4.50000000         0.00000000    
  -4.37320757         0.00000000    
  -4.24641466         0.00000000    
  -4.11962223         0.00000000    
  -3.99282932        -2.82382669E-23
  -3.86603665        -9.87300822E-23
  -3.73924398         6.27486318E-22
  -3.61245155         6.42234337E-21
  -3.48565888         2.75882958E-20
  -3.35886621         7.59639700E-20
  -3.23207355         1.45723749E-19
  -3.10528088         1.86306471E-19
  -2.97848821         9.96933519E-20
  -2.85169554        -1.98273151E-19
  -2.72490287        -6.58234453E-19
  -2.59811020        -1.01854864E-18
  -2.47131753        -9.33667605E-19
  -2.34452486        -4.09071496E-19
  -2.21773219        -4.03502709E-19
  -2.09093952        -3.16984544E-18
  -1.96414697        -1.18139085E-17
  -1.83735430        -2.88570262E-17
  -1.71056163        -5.42402312E-17
  -1.58376896        -8.38414387E-17
  -1.45697629        -1.09719791E-16
  -1.33018374        -1.22704806E-16
  -1.20339108        -1.16820442E-16
  -1.07659841        -9.39356031E-17
 -0.949805737        -6.65066514E-17
 -0.823013067        -5.64891037E-17
 -0.696220458        -8.92715883E-17
 -0.569427788        -1.82598956E-16
 -0.442635119        -3.32029371E-16
 -0.315842479        -4.96912461E-16
 -0.189049825        -5.94047870E-16
  -6.22571707E-02    -5.08672084E-16
   6.45354837E-02    -1.31432527E-16
  0.191328138         5.77347398E-16
  0.318120778         1.50907750E-15
  0.444913447         2.34416029E-15
  0.571706116         2.54692960E-15
  0.698498726         1.45649263E-15
  0.825291395        -1.51325189E-15
  0.952084064        -6.59380718E-15
   1.07887673        -1.33784322E-14
   1.20566940        -2.06402431E-14
   1.33246195        -2.63520878E-14
   1.45925462        -2.79596699E-14
   1.58604729        -2.28803182E-14
   1.71283996        -9.11484108E-15
   1.83963263         1.41976579E-14
   1.96642530         4.64564876E-14
   2.09321785         8.56297929E-14
   2.22001052         1.28666744E-13
   2.34680319         1.72219850E-13
   2.47359586         2.13537751E-13
   2.60038853         2.51372165E-13
   2.72718120         2.86784078E-13
   2.85397387         3.23795027E-13
   2.98076653         3.69881372E-13
   3.10755920         4.36311794E-13
   3.23435187         5.38274937E-13
   3.36114454         6.94659066E-13
   3.48793697         9.27274642E-13
   3.61472964         1.25930755E-12
   3.74152231         1.71289729E-12
   3.86831498         2.30593322E-12
   3.99510765         3.04843021E-12
   4.12190056         3.93910295E-12
   4.24869299         4.96295930E-12
   4.37548542         6.09077372E-12
   4.50227833         7.28123378E-12
   4.62907076         8.48621867E-12
   4.75586367         9.65927598E-12
   4.88265610         1.07666896E-11
   5.00944901         1.17998441E-11
   5.13624144         1.27868714E-11
   5.26303434         1.38009769E-11
   5.38982677         1.49626943E-11
   5.51661968         1.64335438E-11
   5.64341211         1.83998042E-11
   5.77020502         2.10466974E-11
   5.89699745         2.45256159E-11
   6.02379036         2.89192663E-11
   6.15058279         3.42114184E-11
   6.27737522         4.02682193E-11
   6.40416813         4.68370585E-11
   6.53096056         5.35654542E-11
   6.65775347         6.00376693E-11
   6.78454590         6.58210431E-11
   6.91133881         7.05085088E-11
   7.03813124         7.37410480E-11
   7.16492414         7.51935667E-11
   7.29171658         7.45127293E-11
   7.41850948         7.12047504E-11
   7.54530191         6.44826900E-11
   7.67209482         5.30974119E-11
   7.79888725         3.51873322E-11
   7.92567968         8.18844124E-12
   8.05247211        -3.11557447E-11
   8.17926502        -8.66563418E-11
   8.30605793        -1.62405908E-10
   8.43285084        -2.62391497E-10
   8.55964279        -3.90042165E-10
   8.68643570        -5.47789258E-10
   8.81322861        -7.36724015E-10
   8.94002151        -9.56440704E-10
   9.06681347        -1.20512045E-09
   9.19360638        -1.47987433E-09
   9.32039928        -1.77729031E-09
   9.44719219        -2.09407247E-09
   9.57398415        -2.42760034E-09
   9.70077705        -2.77618084E-09
   9.82756996        -3.13879034E-09
   9.95436192        -3.51410656E-09
   10.0811548        -3.89872890E-09
   10.2079477        -4.28461311E-09
   10.3347406        -4.65581795E-09
   10.4615326        -4.98490405E-09
   10.5883255        -5.22929477E-09
   10.7151184        -5.32815303E-09
   10.8419113        -5.20017052E-09
   10.9687033        -4.74277062E-09
   11.0954962        -3.83299836E-09
   11.2222891        -2.33040720E-09
   11.3490820        -8.18818416E-11
   11.4758739         3.07160164E-09
   11.6026669         7.28657179E-09
   11.7294598         1.27073196E-08
   11.8562517         1.94552925E-08
   11.9830446         2.76181140E-08
   12.1098375         3.72388129E-08
   12.2366304         4.83061058E-08
   12.3634224         6.07466504E-08
   12.4902153         7.44206048E-08
   12.6170082         8.91219614E-08
   12.7438011         1.04585588E-07
   12.8705931         1.20503515E-07
   12.9973860         1.36552543E-07
   13.1241789         1.52436087E-07
   13.2509708         1.67943014E-07
   13.3777637         1.83025008E-07
   13.5045567         1.97894721E-07
   13.6313496         2.13145341E-07
   13.7581415         2.29891342E-07
   13.8849344         2.49927581E-07
   14.0117273         2.75908036E-07
   14.1385202         3.11534109E-07
   14.2653122         3.61753649E-07
   14.3921051         4.32960007E-07
   14.5188980         5.33186210E-07
   14.6456909         6.72284841E-07
   14.7724829         8.62088200E-07
   14.8992758         1.11653526E-06
   15.0260687         1.45176682E-06
   15.1528606         1.88616480E-06
   15.2796535         2.44034413E-06
   15.4064465         3.13708188E-06
   15.5332394         4.00118324E-06
   15.6600313         5.05926619E-06
   15.7868242         6.33948002E-06
   15.9136171         7.87114732E-06
   16.0404091         9.68433960E-06
   16.1672020         1.18093503E-05
   16.2939949         1.42761646E-05
   16.4207878         1.71138054E-05
   16.5475807         2.03496729E-05
   16.6743736         2.40088302E-05
   16.8011646         2.81133416E-05
   16.9279575         3.26815498E-05
   17.0547504         3.77273354E-05
   17.1815434         4.32596353E-05
   17.3083363         4.92817635E-05
   17.4351292         5.57911044E-05
   17.5619221         6.27786794E-05
   17.6887150         7.02291582E-05
   17.8155060         7.81206763E-05
   17.9422989         8.64252361E-05
   18.0690918         9.51089532E-05
   18.1958847         1.04132690E-04
   18.3226776         1.13452865E-04
   18.4494705         1.23022342E-04
   18.5762634         1.32791451E-04
   18.7030544         1.42709396E-04
   18.8298473         1.52725202E-04
   18.9566402         1.62789293E-04
   19.0834332         1.72854721E-04
   19.2102261         1.82878255E-04
   19.3370190         1.92821666E-04
   19.4638119         2.02652707E-04
   19.5906048         2.12345592E-04
   19.7173958         2.21881899E-04
   19.8441887         2.31250640E-04
   19.9709816         2.40448251E-04
   20.0977745         2.49478442E-04
   20.2245674         2.58351502E-04
   20.3513603         2.67083582E-04
   20.4781532         2.75695609E-04
   20.6049442         2.84212263E-04
   20.7317371         2.92660377E-04
   20.8585300         3.01067601E-04
   20.9853230         3.09461291E-04
   21.1121159         3.17866623E-04
   21.2389088         3.26305919E-04
   21.3657017         3.34797136E-04
   21.4924946         3.43353342E-04
   21.6192856         3.51982191E-04
   21.7460785         3.60685401E-04
   21.8728714         3.69459041E-04
   21.9996643         3.78293887E-04
   22.1264572         3.87175969E-04
   22.2532501         3.96087591E-04
   22.3800430         4.05007770E-04
   22.5068340         4.13914328E-04
   22.6336269         4.22784680E-04
   22.7604198         4.31596709E-04
   22.8872128         4.40330507E-04
   23.0140057         4.48969164E-04
   23.1407986         4.57499758E-04
   23.2675915         4.65913850E-04
   23.3943844         4.74207889E-04
   23.5211754         4.82383824E-04
   23.6479683         4.90448845E-04
   23.7747612         4.98415146E-04
   23.9015541         5.06299839E-04
   24.0283470         5.14124346E-04
   24.1551399         5.21913928E-04
   24.2819328         5.29696641E-04
   24.4087238         5.37503685E-04
   24.5355167         5.45367890E-04
   24.6623096         5.53323247E-04
   24.7891026         5.61404799E-04
   24.9158955         5.69647760E-04
   25.0426884         5.78087231E-04
   25.1694813         5.86757553E-04
   25.2962742         5.95691963E-04
   25.4230652         6.04922592E-04
   25.5498581         6.14478835E-04
   25.6766510         6.24387758E-04
   25.8034439         6.34672935E-04
   25.9302368         6.45353342E-04
   26.0570297         6.56443066E-04
   26.1838226         6.67949324E-04
   26.3106136         6.79871591E-04
   26.4374065         6.92199974E-04
   26.5641994         7.04913749E-04
   26.6909924         7.17979623E-04
   26.8177853         7.31350388E-04
   26.9445782         7.44963007E-04
   27.0713711         7.58737850E-04
   27.1981640         7.72576546E-04
   27.3249550         7.86362041E-04
   27.4517479         7.99957488E-04
   27.5785408         8.13206541E-04
   27.7053337         8.25933123E-04
   27.8321266         8.37942935E-04
   27.9589195         8.49024218E-04
   28.0857124         8.58949730E-04
   28.2125034         8.67479423E-04
   28.3392963         8.74363293E-04
   28.4660892         8.79344181E-04
   28.5928822         8.82160966E-04
   28.7196751         8.82554159E-04
   28.8464680         8.80267587E-04
   28.9732609         8.75053811E-04
   29.1000538         8.66677961E-04
   29.2268448         8.54921236E-04
   29.3536377         8.39584973E-04
   29.4804306         8.20493617E-04
   29.6072235         7.97498040E-04
   29.7340164         7.70477927E-04
   29.8608093         7.39344337E-04
   29.9876022         7.04041217E-04
   30.1143932         6.64546737E-04
   30.2411861         6.20874111E-04
   30.3679790         5.73072408E-04
   30.4947720         5.21226320E-04
   30.6215649         4.65455319E-04
   30.7483578         4.05914325E-04
   30.8751507         3.42791551E-04
   31.0019417         2.76307605E-04
   31.1287346         2.06714220E-04
   31.2555275         1.34292466E-04
   31.3823204         5.93507066E-05
   31.5091133        -1.77770726E-05
   31.6359062        -9.67338492E-05
   31.7626991        -1.77141468E-04
   31.8894920        -2.58603279E-04
   32.0162849        -3.40706756E-04
   32.1430779        -4.23025718E-04
   32.2698708        -5.05123753E-04
   32.3966637        -5.86556329E-04
   32.5234528        -6.66874927E-04
   32.6502457        -7.45628728E-04
   32.7770386        -8.22369475E-04
   32.9038315        -8.96654034E-04
   33.0306244        -9.68048116E-04
   33.1574173        -1.03613012E-03
   33.2842102        -1.10049476E-03
   33.4110031        -1.16075692E-03
   33.5377960        -1.21655536E-03
   33.6645889        -1.26755598E-03
   33.7913818        -1.31345668E-03
   33.9181747        -1.35398901E-03
   34.0449677        -1.38892257E-03
   34.1717606        -1.41806679E-03
   34.2985535        -1.44127500E-03
   34.4253426        -1.45844370E-03
   34.5521355        -1.46951631E-03
   34.6789284        -1.47448317E-03
   34.8057213        -1.47338130E-03
   34.9325142        -1.46629510E-03
   35.0593071        -1.45335426E-03
   35.1861000        -1.43473304E-03
   35.3128929        -1.41064730E-03
   35.4396858        -1.38135208E-03
   35.5664787        -1.34713890E-03
   35.6932716        -1.30833033E-03
   35.8200645        -1.26527739E-03
   35.9468575        -1.21835433E-03
   36.0736504        -1.16795371E-03
   36.2004433        -1.11448194E-03
   36.3272324        -1.05835393E-03
   36.4540253        -9.99988988E-04
   36.5808182        -9.39805235E-04
   36.7076111        -8.78215767E-04
   36.8344040        -8.15623556E-04
   36.9611969        -7.52418709E-04
   37.0879898        -6.88974396E-04
   37.2147827        -6.25644636E-04
   37.3415756        -5.62760571E-04
   37.4683685        -5.00630471E-04
   37.5951614        -4.39537282E-04
   37.7219543        -3.79738369E-04
   37.8487473        -3.21465719E-04
   37.9755402        -2.64925533E-04
   38.1023293        -2.10299622E-04
   38.2291222        -1.57746414E-04
   38.3559151        -1.07402258E-04
   38.4827080        -5.93831282E-05
   38.6095009        -1.37860961E-05
   38.7362938         2.93086923E-05
   38.8630867         6.98366639E-05
   38.9898796         1.07747248E-04
   39.1166725         1.43002631E-04
   39.2434654         1.75576963E-04
   39.3702583         2.05455479E-04
   39.4970512         2.32634207E-04
   39.6238441         2.57120089E-04
   39.7506371         2.78930966E-04
   39.8774300         2.98096071E-04
   40.0042191         3.14656907E-04
   40.1310120         3.28667607E-04
   40.2578049         3.40195867E-04
   40.3845978         3.49323498E-04
   40.5113907         3.56147008E-04
   40.6381836         3.60777602E-04
   40.7649765         3.63341096E-04
   40.8917694         3.63977277E-04
   41.0185623         3.62838880E-04
   41.1453552         3.60089907E-04
   41.2721481         3.55903438E-04
   41.3989410         3.50459304E-04
   41.5257339         3.43940745E-04
   41.6525269         3.36531317E-04
   41.7793198         3.28410941E-04
   41.9061089         3.19752231E-04
   42.0329018         3.10716860E-04
   42.1596947         3.01451568E-04
   42.2864876         2.92085140E-04
   42.4132805         2.82725348E-04
   42.5400734         2.73456622E-04
   42.6668663         2.64338712E-04
   42.7936592         2.55405466E-04
   42.9204521         2.46665353E-04
   43.0472450         2.38102104E-04
   43.1740379         2.29677069E-04
   43.3008308         2.21331604E-04
   43.4276237         2.12990810E-04
   43.5544167         2.04567943E-04
   43.6812096         1.95969260E-04
   43.8079987         1.87098922E-04
   43.9347916         1.77864786E-04
   44.0615845         1.68183455E-04
   44.1883774         1.57985822E-04
   44.3151703         1.47221450E-04
   44.4419632         1.35862967E-04
   44.5687561         1.23909151E-04
   44.6955490         1.11387635E-04
   44.8223419         9.83559949E-05
   44.9491348         8.49021962E-05
   45.0759277         7.11438915E-05
   45.2027206         5.72261561E-05
   45.3295135         4.33188216E-05
   45.4563065         2.96124181E-05
   45.5830994         1.63136447E-05
   45.7098885         3.63985328E-06
   45.8366814        -8.18662193E-06
   45.9634743        -1.89444781E-05
   46.0902672        -2.84196340E-05
   46.2170601        -3.64110965E-05
   46.3438530        -4.27366322E-05
   46.4706459        -4.72379143E-05
   46.5974388        -4.97850124E-05
   46.7242317        -5.02801668E-05
   46.8510246        -4.86606550E-05
   46.9778175        -4.49009058E-05
   47.1046104        -3.90135392E-05
   47.2314034        -3.10496071E-05
   47.3581963        -2.10979597E-05
   47.4849892        -9.28376448E-06
   47.6117783         4.23381243E-06
   47.7385712         1.92643784E-05
   47.8653641         3.55897973E-05
   47.9921570         5.29682584E-05
   48.1189499         7.11383836E-05
   48.2457428         8.98240251E-05
   48.3725357         1.08738932E-04
   48.4993286         1.27591906E-04
   48.6261215         1.46091377E-04
   48.7529144         1.63950885E-04
   48.8797073         1.80893447E-04
   49.0065002         1.96656576E-04
   49.1332932         2.10996557E-04
   49.2600861         2.23692696E-04
   49.3868790         2.34550927E-04
   49.5136681         2.43407267E-04
   49.6404610         2.50130572E-04
   49.7672539         2.54624552E-04
   49.8940468         2.56829575E-04
   50.0208397         2.56723259E-04
   50.1476326         2.54321028E-04
   50.2744255         2.49675271E-04
   50.4012184         2.42873997E-04
   50.5280113         2.34039398E-04
   50.6548042         2.23324649E-04
   50.7815971         2.10911108E-04
   50.9083900         1.97004614E-04
   51.0351830         1.81831143E-04
   51.1619759         1.65632475E-04
   51.2887688         1.48661551E-04
   51.4155579         1.31177367E-04
   51.5423508         1.13440357E-04
   51.6691437         9.57074662E-05
   51.7959366         7.82276620E-05
   51.9227295         6.12374206E-05
   52.0495224         4.49571198E-05
   52.1763153         2.95873506E-05
   52.3031082         1.53061483E-05
   52.4299011         2.26664679E-06
   52.5566940        -9.40468726E-06
   52.6834869        -1.96089841E-05
   52.8102798        -2.82754499E-05
   52.9370728        -3.53612377E-05
   53.0638657        -4.08506021E-05
   53.1906586        -4.47535895E-05
   53.3174477        -4.71043641E-05
   53.4442406        -4.79590926E-05
   53.5710335        -4.73934087E-05
   53.6978264        -4.54998881E-05
   53.8246193        -4.23852980E-05
   53.9514122        -3.81678692E-05
   54.0782051        -3.29745053E-05
   54.2049980        -2.69382726E-05
   54.3317909        -2.01960447E-05
   54.4585838        -1.28861511E-05
   54.5853767        -5.14658313E-06
   54.7121696         2.88687329E-06
   54.8389626         1.10820401E-05
   54.9657555         1.93117521E-05
   55.0925484         2.74549147E-05
   55.2193375         3.53976575E-05
   55.3461304         4.30341352E-05
   55.4729233         5.02674120E-05
   55.5997162         5.70104385E-05
   55.7265091         6.31866205E-05
   55.8533020         6.87307693E-05
   55.9800949         7.35897702E-05
   56.1068878         7.77231980E-05
   56.2336807         8.11039499E-05
   56.3604736         8.37185507E-05
   56.4872665         8.55673061E-05
   56.6140594         8.66643240E-05
   56.7408524         8.70372023E-05
   56.8676453         8.67263298E-05
   56.9944382         8.57840205E-05
   57.1212273         8.42733207E-05
   57.2480202         8.22663424E-05
   57.3748131         7.98425826E-05
   57.5016060         7.70868719E-05
   57.6283989         7.40873365E-05
   57.7551918         7.09330634E-05
   57.8819847         6.77119970E-05
   58.0087776         6.45085529E-05
   58.1355705         6.14019664E-05
   58.2623634         5.84641930E-05
   58.3891563         5.57585336E-05
   58.5159492         5.33385974E-05
   58.6427422         5.12474217E-05
   58.7695351         4.95172790E-05
   58.8963280         4.81696588E-05
   59.0231171         4.72157772E-05
   59.1499100         4.66575402E-05
   59.2767029         4.64886216E-05
   59.4034958         4.66958954E-05
   59.5302887         4.72611064E-05
   59.6570816         4.81624920E-05
   59.7838745         4.93763691E-05
   59.9106674         5.08787998E-05
   60.0374603         5.26467265E-05
   60.1642532         5.46591982E-05
   60.2910461         5.68978721E-05
   60.4178391         5.93473014E-05
   60.5446320         6.19948405E-05
   60.6714249         6.48298737E-05
   60.7982178         6.78429569E-05
   60.9250069         7.10242821E-05
   61.0517998         7.43620112E-05
   61.1785927         7.78405592E-05
   61.3053856         8.14384694E-05
   61.4321785         8.51265359E-05
   61.5589714         8.88662908E-05
   61.6857643         9.26082939E-05
   61.8125572         9.62913764E-05
   61.9393501         9.98420001E-05
   62.0661430         1.03174541E-04
   62.1929359         1.06191961E-04
   62.3197289         1.08787448E-04
   62.4465218         1.10846537E-04
   62.5733147         1.12249843E-04
   62.7001076         1.12876740E-04
   62.8268967         1.12608999E-04
   62.9536896         1.11335175E-04
   63.0804825         1.08954897E-04
   63.2072754         1.05383471E-04
   63.3340683         1.00555888E-04
   63.4608612         9.44309941E-05
   63.5876541         8.69947908E-05
   63.7144470         7.82630814E-05
   63.8412399         6.82836617E-05
   63.9680328         5.71370401E-05
   64.0948257         4.49367508E-05
   64.2216187         3.18281018E-05
   64.3484116         1.79863855E-05
   64.4752045         3.61366256E-06
   64.6019974        -1.10650208E-05
   64.7287903        -2.58064701E-05
   64.8555832        -4.03545964E-05
   64.9823761        -5.44464820E-05
   65.1091690        -6.78183569E-05
   65.2359619        -8.02120048E-05
   65.3627548        -9.13809345E-05
   65.4895477        -1.01096361E-04
   65.6163330        -1.09152439E-04
   65.7431259        -1.15371273E-04
   65.8699188        -1.19606899E-04
   65.9967117        -1.21748417E-04
   66.1235046        -1.21722267E-04
   66.2502975        -1.19493372E-04
   66.3770905        -1.15065530E-04
   66.5038834        -1.08480606E-04
   66.6306763        -9.98169926E-05
   66.7574692        -8.91870804E-05
   66.8842621        -7.67344900E-05
   67.0110550        -6.26301480E-05
   67.1378479        -4.70684208E-05
   67.2646408        -3.02627650E-05
   67.3914337        -1.24412927E-05
   67.5182266         6.15755334E-06
   67.6450195         2.52894533E-05
   67.7718124         4.47080565E-05
   67.8986053         6.41689257E-05
   68.0253983         8.34327948E-05
   68.1521912         1.02268554E-04
   68.2789841         1.20455887E-04
   68.4057770         1.37787298E-04
   68.5325699         1.54069989E-04
   68.6593628         1.69127277E-04
   68.7861557         1.82799617E-04
   68.9129486         1.94945707E-04
   69.0397415         2.05443008E-04
   69.1665344         2.14188418E-04
   69.2933273         2.21098875E-04
   69.4201126         2.26111762E-04
   69.5469055         2.29185389E-04
   69.6736984         2.30299294E-04
   69.8004913         2.29454774E-04
   69.9272842         2.26675140E-04
   70.0540771         2.22005998E-04
   70.1808701         2.15515000E-04
   70.3076630         2.07292062E-04
   70.4344559         1.97448549E-04
   70.5612488         1.86116769E-04
   70.6880417         1.73448614E-04
   70.8148346         1.59614050E-04
   70.9416275         1.44799022E-04
   71.0684204         1.29203210E-04
   71.1952133         1.13036986E-04
   71.3220062         9.65182044E-05
   71.4487991         7.98687761E-05
   71.5755920         6.33107848E-05
   71.7023849         4.70626546E-05
   71.8291779         3.13353121E-05
   71.9559708         1.63283730E-05
   72.0827637         2.22652193E-06
   72.2095566        -1.08035874E-05
   72.3363495        -2.26161719E-05
   72.4631424        -3.30885887E-05
   72.5899353        -4.21229634E-05
   72.7167282        -4.96472676E-05
   72.8435211        -5.56157247E-05
   72.9703140        -6.00086933E-05
   73.0971069        -6.28319031E-05
   73.2238922        -6.41152801E-05
   73.3506851        -6.39112768E-05
   73.4774780        -6.22930456E-05
   73.6042709        -5.93521618E-05
   73.7310638        -5.51963058E-05
   73.8578568        -4.99470116E-05
   73.9846497        -4.37371673E-05
   74.1114426        -3.67087086E-05
   74.2382355        -2.90103399E-05
   74.3650284        -2.07953799E-05
   74.4918213        -1.22196270E-05
   74.6186142        -3.43939246E-06
   74.7454071         5.39048960E-06
   74.8722000         1.41184591E-05
   74.9989929         2.25982567E-05
   75.1257858         3.06904585E-05
   75.2525787         3.82645594E-05
   75.3793716         4.52005224E-05
   75.5061646         5.13904815E-05
   75.6329575         5.67405259E-05
   75.7597504         6.11719006E-05
   75.8865433         6.46227636E-05
   76.0133362         6.70489535E-05
   76.1401291         6.84252882E-05
   76.2669220         6.87458596E-05
   76.3937149         6.80246740E-05
   76.5205078         6.62955863E-05
   76.6473007         6.36117838E-05
   76.7740936         6.00453204E-05
   76.9008865         5.56857740E-05
   77.0276718         5.06391225E-05
   77.1544647         4.50256921E-05
   77.2812576         3.89782617E-05
   77.4080505         3.26396439E-05
   77.5348434         2.61601999E-05
   77.6616364         1.96950186E-05
   77.7884293         1.34010534E-05
   77.9152222         7.43413966E-06
   78.0420151         1.94594486E-06
   78.1688080        -2.91916490E-06
   78.2956009        -7.02695297E-06
   78.4223938        -1.02564672E-05
   78.5491867        -1.25025754E-05
   78.6759796        -1.36785911E-05
   78.8027725        -1.37184679E-05
   78.9295654        -1.25788538E-05
   79.0563583        -1.02403146E-05
   79.1831512        -6.70862983E-06
   79.3099442        -2.01510193E-06
   79.4367371         3.78333334E-06
   79.5635300         1.06047719E-05
   79.6903229         1.83435695E-05
   79.8171158         2.68719941E-05
   79.9439087         3.60428021E-05
   80.0707016         4.56918970E-05
   80.1974945         5.56419072E-05
   80.3242874         6.57058481E-05
   80.4510803         7.56913796E-05
   80.5778732         8.54051104E-05
   80.7046585         9.46573127E-05
   80.8314514         1.03266255E-04
   80.9582443         1.11062764E-04
   81.0850372         1.17894466E-04
   81.2118301         1.23629725E-04
   81.3386230         1.28160871E-04
   81.4654160         1.31407258E-04
   81.5922089         1.33317197E-04
   81.7190018         1.33869631E-04
   81.8457947         1.33074660E-04
   81.9725876         1.30973334E-04
   82.0993805         1.27636798E-04
   82.2261734         1.23164282E-04
   82.3529663         1.17680749E-04
   82.4797592         1.11333495E-04
   82.6065521         1.04288301E-04
   82.7333450         9.67249434E-05
   82.8601379         8.88325449E-05
   82.9869308         8.08044060E-05
   83.1137238         7.28327577E-05
   83.2405167         6.51036607E-05
   83.3673096         5.77920000E-05
   83.4941025         5.10566533E-05
   83.6208954         4.50363950E-05
   83.7476883         3.98461343E-05
   83.8744812         3.55739503E-05
   84.0012741         3.22790474E-05
   84.1280670         2.99903004E-05
   84.2548599         2.87060393E-05
   84.3816528         2.83945155E-05
   84.5084381         2.89954151E-05
   84.6352310         3.04221539E-05
   84.7620239         3.25650217E-05
   84.8888168         3.52949537E-05
   85.0156097         3.84678060E-05
   85.1424026         4.19291064E-05
   85.2691956         4.55188310E-05
   85.3959885         4.90764905E-05
   85.5227814         5.24459574E-05
   85.6495743         5.54799190E-05
   85.7763672         5.80440501E-05
   85.9031601         6.00206149E-05
   86.0299530         6.13114098E-05
   86.1567459         6.18397971E-05
   86.2835388         6.15523750E-05
   86.4103317         6.04194793E-05
   86.5371246         5.84351037E-05
   86.6639175         5.56162122E-05
   86.7907104         5.20012618E-05
   86.9175034         4.76482273E-05
   87.0442963         4.26322949E-05
   87.1710892         3.70430826E-05
   87.2978821         3.09817260E-05
   87.4246750         2.45579122E-05
   87.5514679         1.78867758E-05
   87.6782608         1.10859746E-05
   87.8050537         4.27295663E-06
   87.9318466        -2.43761929E-06
   88.0586395        -8.93606193E-06
   88.1854324        -1.51196573E-05
   88.3122177        -2.08940528E-05
   88.4390106        -2.61746009E-05
   88.5658035        -3.08870367E-05
   88.6925964        -3.49680377E-05
   88.8193893        -3.83653605E-05
   88.9461823        -4.10376560E-05
   89.0729752        -4.29541433E-05
   89.1997681        -4.40941076E-05
   89.3265610        -4.44461621E-05
   89.4533539        -4.40076219E-05
   89.5801468        -4.27838968E-05
   89.7069397        -4.07876432E-05
   89.8337326        -3.80384299E-05
   89.9605255        -3.45622902E-05
   90.0873184        -3.03915986E-05
   90.2141113        -2.55647228E-05
   90.3409042        -2.01263501E-05
   90.4676971        -1.41274704E-05
   90.5944901        -7.62562058E-06
   90.7212830        -6.85092004E-07
   90.8480759         6.62300999E-06
   90.9748688         1.42206827E-05
   91.1016617         2.20232614E-05
   91.2284546         2.99399562E-05
   91.3552475         3.78744262E-05
   91.4820404         4.57260321E-05
   91.6088333         5.33911843E-05
   91.7356262         6.07650109E-05
   91.8624191         6.77434873E-05
   91.9892120         7.42256161E-05
   92.1159973         8.01160131E-05
   92.2427902         8.53271631E-05
   92.3695831         8.97820428E-05
   92.4963760         9.34164564E-05
   92.6231689         9.61811311E-05
   92.7499619         9.80433906E-05
   92.8767548         9.89887922E-05
   93.0035477         9.90216940E-05
   93.1303406         9.81658450E-05
   93.2571335         9.64639839E-05
   93.3839264         9.39771198E-05
   93.5107193         9.07832218E-05
   93.6375122         8.69753785E-05
   93.7643051         8.26594987E-05
   93.8910980         7.79516995E-05
   94.0178909         7.29754756E-05
   94.1446838         6.78585202E-05
   94.2714767         6.27299305E-05
   94.3982697         5.77169158E-05
   94.5250626         5.29418940E-05
   94.6518555         4.85198834E-05
   94.7786484         4.45559490E-05
   94.9054413         4.11431974E-05
   95.0322342         3.83608676E-05
   95.1590271         3.62731007E-05
   95.2858200         3.49278635E-05
   95.4126129         3.43564352E-05
   95.5394058         3.45731496E-05
   95.6661987         3.55755219E-05
   95.7929916         3.73447983E-05
   95.9197769         3.98466327E-05
   96.0465698         4.30321415E-05
   96.1733627         4.68391409E-05
   96.3001556         5.11935432E-05
   96.4269485         5.60107765E-05
   96.5537415         6.11976939E-05
   96.6805344         6.66541018E-05
   96.8073273         7.22746772E-05
   96.9341202         7.79505863E-05
   97.0609131         8.35715764E-05
   97.1877060         8.90275332E-05
   97.3144989         9.42103434E-05
   97.4412918         9.90155968E-05
   97.5680847         1.03344239E-04
   97.6948776         1.07104024E-04
   97.8216705         1.10211105E-04
   97.9484634         1.12591217E-04
   98.0752563         1.14181130E-04