  -4.50000000         0.00000000    
  -4.37320757         0.00000000    
  -4.24641466         0.00000000    
  -4.11962223         0.00000000    
  -3.99282932         0.00000000    
  -3.86603665         0.00000000    
  -3.73924398         0.00000000    
  -3.61245155         0.00000000    
  -3.48565888         0.00000000    
  -3.35886621         0.00000000    
  -3.23207355         0.00000000    
  -3.10528088         0.00000000    
  -2.97848821         0.00000000    
  -2.85169554         0.00000000    
  -2.72490287         0.00000000    
  -2.59811020         0.00000000    
  -2.47131753         0.00000000    
  -2.34452486         0.00000000    
  -2.21773219         0.00000000    
  -2.09093952         0.00000000    
  -1.96414697         0.00000000    
  -1.83735430         0.00000000    
  -1.71056163         0.00000000    
  -1.58376896         0.00000000    
  -1.45697629         0.00000000    
  -1.33018374         0.00000000    
  -1.20339108         0.00000000    
  -1.07659841         0.00000000    
 -0.949805737         0.00000000    
 -0.823013067         0.00000000    
 -0.696220458         0.00000000    
 -0.569427788         0.00000000    
 -0.442635119         0.00000000    
 -0.315842479         0.00000000    
 -0.189049825         0.00000000    
  -6.22571707E-02     0.00000000    
   6.45354837E-02     0.00000000    
  0.191328138         0.00000000    
  0.318120778         0.00000000    
  0.444913447         0.00000000    
  0.571706116         0.00000000    
  0.698498726         0.00000000    
  0.825291395         0.00000000    
  0.952084064         0.00000000    
   1.07887673         0.00000000    
   1.20566940         0.00000000    
   1.33246195         0.00000000    
   1.45925462         0.00000000    
   1.58604729         0.00000000    
   1.71283996         0.00000000    
   1.83963263         0.00000000    
   1.96642530         0.00000000    
   2.09321785         0.00000000    
   2.22001052         0.00000000    
   2.34680319         0.00000000    
   2.47359586         0.00000000    
   2.60038853         0.00000000    
   2.72718120         0.00000000    
   2.85397387         0.00000000    
   2.98076653         0.00000000    
   3.10755920         0.00000000    
   3.23435187         0.00000000    
   3.36114454         0.00000000    
   3.48793697         0.00000000    
   3.61472964         0.00000000    
   3.74152231         0.00000000    
   3.86831498         0.00000000    
   3.99510765         0.00000000    
   4.12190056         0.00000000    
   4.24869299         0.00000000    
   4.37548542         0.00000000    
   4.50227833         0.00000000    
   4.62907076         0.00000000    
   4.75586367         0.00000000    
   4.88265610         0.00000000    
   5.00944901         0.00000000    
   5.13624144         0.00000000    
   5.26303434         0.00000000    
   5.38982677         0.00000000    
   5.51661968         0.00000000    
   5.64341211         0.00000000    
   5.77020502         0.00000000    
   5.89699745         0.00000000    
   6.02379036         0.00000000    
   6.15058279         0.00000000    
   6.27737522         0.00000000    
   6.40416813         0.00000000    
   6.53096056         0.00000000    
   6.65775347         0.00000000    
   6.78454590         0.00000000    
   6.91133881         0.00000000    
   7.03813124         0.00000000    
   7.16492414         0.00000000    
   7.29171658         0.00000000    
   7.41850948         0.00000000    
   7.54530191         0.00000000    
   7.67209482         0.00000000    
   7.79888725         0.00000000    
   7.92567968         0.00000000    
   8.05247211         0.00000000    
   8.17926502         0.00000000    
   8.30605793         0.00000000    
   8.43285084         0.00000000    
   8.55964279         0.00000000    
   8.68643570         0.00000000    
   8.81322861         0.00000000    
   8.94002151         0.00000000    
   9.06681347         0.00000000    
   9.19360638         0.00000000    
   9.32039928         0.00000000    
   9.44719219         0.00000000    
   9.57398415         0.00000000    
   9.70077705         0.00000000    
   9.82756996         0.00000000    
   9.95436192         0.00000000    
   10.0811548         0.00000000    
   10.2079477         0.00000000    
   10.3347406         0.00000000    
   10.4615326         0.00000000    
   10.5883255         0.00000000    
   10.7151184         0.00000000    
   10.8419113         0.00000000    
   10.9687033         0.00000000    
   11.0954962         0.00000000    
   11.2222891         0.00000000    
   11.3490820         0.00000000    
   11.4758739         0.00000000    
   11.6026669         0.00000000    
   11.7294598         0.00000000    
   11.8562517         0.00000000    
   11.9830446         0.00000000    
   12.1098375         0.00000000    
   12.2366304         0.00000000    
   12.3634224         0.00000000    
   12.4902153         0.00000000    
   12.6170082         0.00000000    
   12.7438011         0.00000000    
   12.8705931         0.00000000    
   12.9973860         0.00000000    
   13.1241789         0.00000000    
   13.2509708         0.00000000    
   13.3777637         0.00000000    
   13.5045567         0.00000000    
   13.6313496         0.00000000    
   13.7581415         0.00000000    
   13.8849344         0.00000000    
   14.0117273         0.00000000    
   14.1385202         0.00000000    
   14.2653122         0.00000000    
   14.3921051         0.00000000    
   14.5188980         0.00000000    
   14.6456909         0.00000000    
   14.7724829         0.00000000    
   14.8992758         0.00000000    
   15.0260687         0.00000000    
   15.1528606         0.00000000    
   15.2796535         0.00000000    
   15.4064465         0.00000000    
   15.5332394         0.00000000    
   15.6600313         0.00000000    
   15.7868242         0.00000000    
   15.9136171         0.00000000    
   16.0404091         0.00000000    
   16.1672020         0.00000000    
   16.2939949         0.00000000    
   16.4207878         0.00000000    
   16.5475807         0.00000000    
   16.6743736         0.00000000    
   16.8011646         0.00000000    
   16.9279575         0.00000000    
   17.0547504         0.00000000    
   17.1815434         0.00000000    
   17.3083363         0.00000000    
   17.4351292         0.00000000    
   17.5619221         0.00000000    
   17.6887150         0.00000000    
   17.8155060         0.00000000    
   17.9422989         0.00000000    
   18.0690918         0.00000000    
   18.1958847         0.00000000    
   18.3226776         0.00000000    
   18.4494705         0.00000000    
   18.5762634         0.00000000    
   18.7030544         0.00000000    
   18.8298473         0.00000000    
   18.9566402         0.00000000    
   19.0834332         0.00000000    
   19.2102261         0.00000000    
   19.3370190         0.00000000    
   19.4638119         0.00000000    
   19.5906048         0.00000000    
   19.7173958         1.29451258E-35
   19.8441887         1.17327469E-34
   19.9709816         3.05603162E-34
   20.0977745         3.69373524E-34
   20.2245674         3.69337823E-34
   20.3513603         3.34502024E-34
   20.4781532         4.42910751E-34
   20.6049442         1.54136261E-34
   20.7317371        -1.91391442E-34
   20.8585300        -1.96498072E-35
   20.9853230        -1.19782580E-33
   21.1121159        -1.83968080E-33
   21.2389088        -2.48604437E-33
   21.3657017        -2.08642386E-33
   21.4924946        -1.52250745E-33
   21.6192856         4.48026310E-34
   21.7460785         9.10863665E-34
   21.8728714        -1.83677937E-34
   21.9996643        -7.22920063E-33
   22.1264572        -1.76044679E-32
   22.2532501        -3.18933246E-32
   22.3800430        -4.75856276E-32
   22.5068340        -1.15972016E-31
   22.6336269        -4.75079709E-31
   22.7604198        -9.43819084E-31
   22.8872128        -1.34194962E-30
   23.0140057        -1.81259705E-30
   23.1407986        -2.01282098E-30
   23.2675915        -1.42938110E-30
   23.3943844        -4.08448740E-31
   23.5211754        -2.35474911E-31
   23.6479683        -4.42460352E-31
   23.7747612        -9.62650410E-31
   23.9015541        -1.95629908E-30
   24.0283470        -4.90910854E-30
   24.1551399        -9.79515632E-30
   24.2819328        -2.15190006E-29
   24.4087238        -4.03209774E-29
   24.5355167        -6.80870763E-29
   24.6623096        -1.03477965E-28
   24.7891026        -1.36049039E-28
   24.9158955        -1.66731282E-28
   25.0426884        -1.84755302E-28
   25.1694813        -1.91474992E-28
   25.2962742        -1.85244212E-28
   25.4230652        -1.58385843E-28
   25.5498581        -1.12668623E-28
   25.6766510        -5.13279228E-29
   25.8034439         1.70282917E-29
   25.9302368         9.12259028E-29
   26.0570297         1.67748053E-28
   26.1838226         2.35692779E-28
   26.3106136         2.90177072E-28
   26.4374065         3.29566841E-28
   26.5641994         3.49939593E-28
   26.6909924         3.42124940E-28
   26.8177853         3.02212329E-28
   26.9445782         2.31653069E-28
   27.0713711         1.27389059E-28
   27.1981640        -1.35651401E-29
   27.3249550        -1.96685933E-28
   27.4517479        -4.32683707E-28
   27.5785408        -7.15998305E-28
   27.7053337        -1.04122725E-27
   27.8321266        -1.39828947E-27
   27.9589195        -1.75803007E-27
   28.0857124        -2.08455165E-27
   28.2125034        -2.33041221E-27
   28.3392963        -2.43742227E-27
   28.4660892        -2.34027105E-27
   28.5928822        -1.97546082E-27
   28.7196751        -1.28588151E-27
   28.8464680        -2.28043515E-28
   28.9732609         1.22157355E-27
   29.1000538         3.05603039E-27
   29.2268448         5.22951648E-27
   29.3536377         7.64710052E-27
   29.4804306         1.01571604E-26
   29.6072235         1.25503456E-26
   29.7340164         1.45573587E-26
   29.8608093         1.58573768E-26
   29.9876022         1.60927239E-26
   30.1143932         1.48867082E-26
   30.2411861         1.18766730E-26
   30.3679790         6.74952934E-27
   30.4947720        -7.14933507E-28
   30.6215649        -1.05954527E-26
   30.7483578        -2.27810010E-26
   30.8751507        -3.69216455E-26
   31.0019417        -5.23855348E-26
   31.1287346        -6.82284872E-26
   31.2555275        -8.31823318E-26
   31.3823204        -9.56646628E-26
   31.5091133        -1.03822169E-25
   31.6359062        -1.05600927E-25
   31.7626991        -9.88650037E-26
   31.8894920        -8.15487179E-26
   32.0162849        -5.18501325E-26
   32.1430779        -8.45543951E-27
   32.2698708         4.92086810E-26
   32.3966637         1.20712063E-25
   32.5234528         2.04361825E-25
   32.6502457         2.96974995E-25
   32.7770386         3.93704084E-25
   32.9038315         4.87950406E-25
   33.0306244         5.71396556E-25
   33.1574173         6.34182686E-25
   33.2842102         6.65256755E-25
   33.4110031         6.52916998E-25
   33.5377960         5.85552468E-25
   33.6645889         4.52576897E-25
   33.7913818         2.45536728E-25
   33.9181747        -4.06519684E-26
   34.0449677        -4.06396733E-25
   34.1717606        -8.46133883E-25
   34.2985535        -1.34714832E-24
   34.4253426        -1.88863280E-24
   34.5521355        -2.44109418E-24
   34.6789284        -2.96629391E-24
   34.8057213        -3.41778444E-24
   34.9325142        -3.74222637E-24
   35.0593071        -3.88153723E-24
   35.1861000        -3.77593479E-24
   35.3128929        -3.36787045E-24
   35.4396858        -2.60677844E-24
   35.5664787        -1.45451594E-24
   35.6932716         1.08771470E-25
   35.8200645         2.07863429E-24
   35.9468575         4.42060494E-24
   36.0736504         7.06520629E-24
   36.2004433         9.90428514E-24
   36.3272324         1.27891416E-23
   36.4540253         1.55311629E-23
   36.5808182         1.79052761E-23
   36.7076111         1.96569465E-23
   36.8344040         2.05126381E-23
   36.9611969         2.01941923E-23
   37.0879898         1.84368027E-23
   37.2147827         1.50101092E-23
   37.3415756         9.74190128E-24
   37.4683685         2.54306273E-24
   37.5951614        -6.56741258E-24
   37.7219543        -1.74389631E-23
   37.8487473        -2.97700486E-23
   37.9755402        -4.30939850E-23
   38.1023293        -5.67732213E-23
   38.2291222        -7.00031759E-23
   38.3559151        -8.18283082E-23
   38.4827080        -9.11714632E-23
   38.6095009        -9.68774203E-23
   38.7362938        -9.77706191E-23
   38.8630867        -9.27265794E-23
   38.9898796        -8.07545612E-23
   39.1166725        -6.10890982E-23
   39.2434654        -3.32854148E-23
   39.3702583         2.68585405E-24
   39.4970512         4.63510055E-23
   39.6238441         9.66608748E-23
   39.7506371         1.51939306E-22
   39.8774300         2.09860553E-22
   40.0042191         2.67464464E-22
   40.1310120         3.21212725E-22
   40.2578049         3.67091386E-22
   40.3845978         4.00764766E-22
   40.5113907         4.17775384E-22
   40.6381836         4.13790664E-22
   40.7649765         3.84888871E-22
   40.8917694         3.27870206E-22
   41.0185623         2.40583669E-22
   41.1453552         1.22247503E-22
   41.2721481        -2.62514324E-23
   41.3989410        -2.02109420E-22
   41.5257339        -4.00425493E-22
   41.6525269        -6.14114760E-22
   41.7793198        -8.33936039E-22
   41.9061089        -1.04865277E-21
   42.0329018        -1.24533364E-21
   42.1596947        -1.40981525E-21
   42.2864876        -1.52729429E-21
   42.4132805        -1.58306769E-21
   42.5400734        -1.56338176E-21
   42.6668663        -1.45636436E-21
   42.7936592        -1.25298950E-21
   42.9204521        -9.48036224E-22
   43.0472450        -5.40970466E-22
   43.1740379        -3.67015927E-23
   43.3008308         5.53865477E-22
   43.4276237         1.21353101E-21
   43.5544167         1.91881365E-21
   43.6812096         2.64031467E-21
   43.8079987         3.34346161E-21
   43.9347916         3.98966012E-21
   44.0615845         4.53779531E-21
   44.1883774         4.94610143E-21
   44.3151703         5.17426838E-21
   44.4419632         5.18577176E-21
   44.5687561         4.95026116E-21
   44.6955490         4.44589909E-21
   44.8223419         3.66149721E-21
   44.9491348         2.59833223E-21
   45.0759277         1.27144617E-21
   45.2027206        -2.89644733E-22
   45.3295135        -2.04095830E-21
   45.4563065        -3.92485286E-21
   45.5830994        -5.87169190E-21
   45.7098885        -7.80225915E-21
   45.8366814        -9.63093980E-21
   45.9634743        -1.12694562E-20
   46.0902672        -1.26311546E-20
   46.2170601        -1.36353131E-20
   46.3438530        -1.42114783E-20
   46.4706459        -1.43034521E-20
   46.5974388        -1.38725766E-20
   46.7242317        -1.29000957E-20
   46.8510246        -1.13883803E-20
   46.9778175        -9.36079748E-21
   47.1046104        -6.86011255E-21
   47.2314034        -3.94567576E-21
   47.3581963        -6.88965467E-22
   47.4849892         2.83148064E-21
   47.6117783         6.53597609E-21
   47.7385712         1.03497355E-20
   47.8653641         1.42085121E-20
   47.9921570         1.80628781E-20
   48.1189499         2.18810630E-20
   48.2457428         2.56493134E-20
   48.3725357         2.93692286E-20
   48.4993286         3.30520370E-20
   48.6261215         3.67093999E-20
   48.7529144         4.03408973E-20
   48.8797073         4.39187604E-20
   49.0065002         4.73705270E-20
   49.1332932         5.05613697E-20
   49.2600861         5.32762766E-20
   49.3868790         5.52059953E-20
   49.5136681         5.59364863E-20
   49.6404610         5.49458470E-20
   49.7672539         5.16106451E-20
   49.8940468         4.52227913E-20
   50.0208397         3.50188657E-20
   50.1476326         2.02238438E-20
   50.2744255         1.08270680E-22
   50.4012184        -2.59405100E-20
   50.5280113        -5.83370484E-20
   50.6548042        -9.72065303E-20
   50.7815971        -1.42290058E-19
   50.9083900        -1.92851887E-19
   51.0351830        -2.47594467E-19
   51.1619759        -3.04589460E-19
   51.2887688        -3.61233392E-19
   51.4155579        -4.14236670E-19
   51.5423508        -4.59654185E-19
   51.6691437        -4.92963766E-19
   51.7959366        -5.09201425E-19
   51.9227295        -5.03153132E-19
   52.0495224        -4.69609200E-19
   52.1763153        -4.03673781E-19
   52.3031082        -3.01125098E-19
   52.4299011        -1.58818432E-19
   52.5566940         2.48922185E-20
   52.6834869         2.49722441E-19
   52.8102798         5.13049211E-19
   52.9370728         8.09553600E-19
   53.0638657         1.13093322E-18
   53.1906586         1.46573954E-18
   53.3174477         1.79934407E-18
   53.4442406         2.11408277E-18
   53.5710335         2.38960133E-18
   53.6978264         2.60341160E-18
   53.8246193         2.73167112E-18
   53.9514122         2.75020286E-18
   54.0782051         2.63571197E-18
   54.2049980         2.36719404E-18
   54.3317909         1.92749771E-18
   54.4585838         1.30495104E-18
   54.5853767         4.95024635E-19
   54.7121696        -4.98094095E-19
   54.8389626        -1.66009317E-18
   54.9657555        -2.96539969E-18
   55.0925484        -4.37642568E-18
   55.2193375        -5.84331014E-18
   55.3461304        -7.30423890E-18
   55.4729233        -8.68644943E-18
   55.5997162        -9.90794291E-18
   55.7265091        -1.08800282E-17
   55.8533020        -1.15105417E-17
   55.9800949        -1.17078887E-17
   56.1068878        -1.13856862E-17
   56.2336807        -1.04679334E-17
   56.3604736        -8.89452093E-18
   56.4872665        -6.62687145E-18
   56.6140594        -3.65341978E-18
   56.7408524         5.32930901E-21
   56.8676453         4.29254253E-18
   56.9944382         9.11185353E-18
   57.1212273         1.43256118E-17
   57.2480202         1.97548697E-17
   57.3748131         2.51814028E-17
   57.5016060         3.03518573E-17
   57.6283989         3.49843533E-17
   57.7551918         3.87774198E-17
   57.8819847         4.14212313E-17
   58.0087776         4.26110115E-17
   58.1355705         4.20621308E-17
   58.2623634         3.95265708E-17
   58.3891563         3.48101656E-17
   58.5159492         2.77896753E-17
   58.6427422         1.84291920E-17
   58.7695351         6.79478539E-18
   58.8963280        -6.93359374E-18
   59.0231171        -2.24536225E-17
   59.1499100        -3.93368884E-17
   59.2767029        -5.70301791E-17
   59.4034958        -7.48630284E-17
   59.5302887        -9.20616486E-17
   59.6570816        -1.07769365E-16
   59.7838745        -1.21074135E-16
   59.9106674        -1.31041992E-16
   60.0374603        -1.36756262E-16
   60.1642532        -1.37361308E-16
   60.2910461        -1.32109399E-16
   60.4178391        -1.20408910E-16
   60.5446320        -1.01871971E-16
   60.6714249        -7.63591864E-17
   60.7982178        -4.40188861E-17
   60.9250069        -5.31890865E-18
   61.0517998         3.89322382E-17
   61.1785927         8.75762650E-17
   61.3053856         1.39110987E-16
   61.4321785         1.91711786E-16
   61.5589714         2.43270430E-16
   61.6857643         2.91451146E-16
   61.8125572         3.33763777E-16
   61.9393501         3.67653221E-16
   62.0661430         3.90602150E-16
   62.1929359         4.00244614E-16
   62.3197289         3.94488072E-16
   62.4465218         3.71636050E-16
   62.5733147         3.30510297E-16
   62.7001076         2.70563526E-16
   62.8268967         1.91978628E-16
   62.9536896         9.57478434E-17
   63.0804825        -1.62737479E-17
   63.2072754        -1.41346704E-16
   63.3340683        -2.75859758E-16
   63.4608612        -4.15382999E-16
   63.5876541        -5.54761476E-16
   63.7144470        -6.88249527E-16
   63.8412399        -8.09687741E-16
   63.9680328        -9.12714741E-16
   64.0948257        -9.91012878E-16
   64.2216187        -1.03857780E-15
   64.3484116        -1.05000449E-15
   64.4752045        -1.02077846E-15
   64.6019974        -9.47561676E-16
   64.7287903        -8.28456985E-16
   64.8555832        -6.63241515E-16
   64.9823761        -4.53553744E-16
   65.1091690        -2.03020351E-16
   65.2359619         8.26844049E-17
   65.3627548         3.95863071E-16
   65.4895477         7.26902923E-16
   65.6163330         1.06447668E-15
   65.7431259         1.39583608E-15
   65.8699188         1.70718940E-15
   65.9967117         1.98416684E-15
   66.1235046         2.21234736E-15
   66.2502975         2.37784637E-15
   66.3770905         2.46793341E-15
   66.5038834         2.47166056E-15
   66.6306763         2.38048085E-15
   66.7574692         2.18882271E-15
   66.8842621         1.89459438E-15
   67.0110550         1.49959454E-15
   67.1378479         1.00979721E-15
   67.2646408         4.35493520E-16
   67.3914337        -2.08734316E-16
   67.5182266        -9.04214130E-16
   67.6450195        -1.62857638E-15
   67.7718124        -2.35632707E-15
   67.8986053        -3.05960053E-15
   68.0253983        -3.70908358E-15
   68.1521912        -4.27506084E-15
   68.2789841        -4.72858514E-15
   68.4057770        -5.04270181E-15
   68.5325699        -5.19369644E-15
   68.6593628        -5.16232446E-15
   68.7861557        -4.93494143E-15
   68.9129486        -4.50451147E-15
   69.0397415        -3.87141702E-15
   69.1665344        -3.04403799E-15
   69.2933273        -2.03904187E-15
   69.4201126        -8.81359804E-16
   69.5469055         3.96173297E-16
   69.6736984         1.75354074E-15
   69.8004913         3.14460918E-15
   69.9272842         4.51852987E-15
   70.0540771         5.82143595E-15
   70.1808701         6.99839670E-15
   70.3076630         7.99556327E-15
   70.4344559         8.76242286E-15
   70.5612488         9.25408228E-15
   70.6880417         9.43348894E-15
   70.8148346         9.27348696E-15
   70.9416275         8.75860358E-15
   71.0684204         7.88649338E-15
   71.1952133         6.66891782E-15
   71.3220062         5.13222176E-15
   71.4487991         3.31722878E-15
   71.5755920         1.27851100E-15
   71.7023849        -9.16949058E-16
   71.8291779        -3.19173704E-15
   71.9559708        -5.46053681E-15
   72.0827637        -7.63318563E-15
   72.2095566        -9.61815060E-15
   72.3363495        -1.13262764E-14
   72.4631424        -1.26747147E-14
   72.5899353        -1.35908274E-14
   72.7167282        -1.40159380E-14
   72.8435211        -1.39087291E-14
   72.9703140        -1.32480976E-14
   73.0971069        -1.20353760E-14
   73.2238922        -1.02956762E-14
   73.3506851        -8.07831585E-15
   73.4774780        -5.45621016E-15
   73.6042709        -2.52416178E-15
   73.7310638         6.03907175E-16
   73.8578568         3.79878268E-15
   73.9846497         6.92074453E-15
   74.1114426         9.82514427E-15
   74.2382355         1.23686106E-14
   74.3650284         1.44156707E-14
   74.4918213         1.58454555E-14
   74.6186142         1.65582930E-14
   74.7454071         1.64818314E-14
   74.8722000         1.55763193E-14
   74.9989929         1.38389353E-14
   75.1257858         1.13066439E-14
   75.2525787         8.05758472E-15
   75.3793716         4.21058469E-15
   75.5061646        -7.71477675E-17
   75.6329575        -4.61428821E-15
   75.7597504        -9.18158134E-15
   75.8865433        -1.35398208E-14
   76.0133362        -1.74393598E-14
   76.1401291        -2.06309782E-14
   76.2669220        -2.28776450E-14
   76.3937149        -2.39667007E-14
   76.5205078        -2.37220267E-14
   76.6473007        -2.20157246E-14
   76.7740936        -1.87785680E-14
   76.9008865        -1.40087298E-14
   77.0276718        -7.77839419E-15
   77.1544647        -2.37568813E-16
   77.2812576         8.38517725E-15
   77.4080505         1.77853575E-14
   77.5348434         2.75889168E-14
   77.6616364         3.73621151E-14
   77.7884293         4.66249421E-14
   77.9152222         5.48679585E-14
   78.0420151         6.15717804E-14
   78.1688080         6.62289437E-14
   78.2956009         6.83673360E-14
   78.4223938         6.75741269E-14
   78.5491867         6.35196648E-14
   78.6759796         5.59800111E-14
   78.8027725         4.48570082E-14
   78.9295654         3.01952202E-14
   79.0563583         1.21942370E-14
   79.1831512        -8.78394342E-15
   79.3099442        -3.22139606E-14
   79.4367371        -5.74122388E-14
   79.5635300        -8.35494258E-14
   79.6903229        -1.09669665E-13
   79.8171158        -1.34716701E-13
   79.9439087        -1.57566397E-13
   80.0707016        -1.77064906E-13
   80.1974945        -1.92071172E-13
   80.3242874        -2.01503148E-13
   80.4510803        -2.04385215E-13
   80.5778732        -1.99895994E-13
   80.7046585        -1.87414130E-13
   80.8314514        -1.66560464E-13
   80.9582443        -1.37234286E-13
   81.0850372        -9.96421302E-14
   81.2118301        -5.43176242E-14
   81.3386230        -2.13005408E-15
   81.4654160         5.57184202E-14
   81.5922089         1.17708509E-13
   81.7190018         1.82032449E-13
   81.8457947         2.46635720E-13
   81.9725876         3.09271082E-13
   82.0993805         3.67563808E-13
   82.2261734         4.19086640E-13
   82.3529663         4.61442462E-13
   82.4797592         4.92351982E-13
   82.6065521         5.09743723E-13
   82.7333450         5.11842630E-13
   82.8601379         4.97255828E-13
   82.9869308         4.65049494E-13
   83.1137238         4.14815751E-13
   83.2405167         3.46725470E-13
   83.3673096         2.61563801E-13
   83.4941025         1.60747514E-13
   83.6208954         4.63210640E-14
   83.7476883        -7.90694618E-14
   83.8744812        -2.12225040E-13
   84.0012741        -3.49464164E-13
   84.1280670        -4.86714347E-13
   84.2548599        -6.19622897E-13
   84.3816528        -7.43683598E-13
   84.5084381        -8.54376303E-13
   84.6352310        -9.47315251E-13
   84.7620239        -1.01840053E-12
   84.8888168        -1.06396966E-12
   85.0156097        -1.08094198E-12
   85.1424026        -1.06695046E-12
   85.2691956        -1.02045932E-12
   85.3959885        -9.40857093E-13
   85.5227814        -8.28525237E-13
   85.6495743        -6.84876743E-13
   85.7763672        -5.12363318E-13
   85.9031601        -3.14448961E-13
   86.0299530        -9.55463126E-14
   86.1567459         1.39076467E-13
   86.2835388         3.83423897E-13
   86.4103317         6.30928957E-13
   86.5371246         8.74633807E-13
   86.6639175         1.10738979E-12
   86.7907104         1.32207168E-12
   86.9175034         1.51179763E-12
   87.0442963         1.67014926E-12
   87.1710892         1.79138421E-12
   87.2978821         1.87063169E-12
   87.4246750         1.90406718E-12
   87.5514679         1.88905835E-12
   87.6782608         1.82427424E-12
   87.8050537         1.70975853E-12
   87.9318466         1.54695701E-12
   88.0586395         1.33870194E-12
   88.1854324         1.08915242E-12
   88.3122177         8.03690556E-13
   88.4390106         4.88775144E-13
   88.5658035         1.51763002E-13
   88.6925964        -1.99304440E-13
   88.8193893        -5.55933771E-13
   88.9461823        -9.09432089E-13
   89.0729752        -1.25116161E-12
   89.1997681        -1.57279550E-12
   89.3265610        -1.86655921E-12
   89.4533539        -2.12545281E-12
   89.5801468        -2.34344423E-12
   89.7069397        -2.51562464E-12
   89.8337326        -2.63832749E-12
   89.9605255        -2.70919160E-12
   90.0873184        -2.72718762E-12
   90.2141113        -2.69258400E-12
   90.3409042        -2.60687674E-12
   90.4676971        -2.47266530E-12
   90.5944901        -2.29349829E-12
   90.7212830        -2.07368215E-12
   90.8480759        -1.81807282E-12
   90.9748688        -1.53185201E-12
   91.1016617        -1.22030554E-12
   91.2284546        -8.88607384E-13
   91.3552475        -5.41630217E-13
   91.4820404        -1.83781945E-13
   91.6088333         1.81114753E-13
   91.7356262         5.49896608E-13
   91.8624191         9.20077491E-13
   91.9892120         1.28981483E-12
   92.1159973         1.65781429E-12
   92.2427902         2.02318652E-12
   92.3695831         2.38524695E-12
   92.4963760         2.74328650E-12
   92.6231689         3.09630468E-12
   92.7499619         3.44272722E-12
   92.8767548         3.78013116E-12
   93.0035477         4.10497721E-12
   93.1303406         4.41238062E-12
   93.2571335         4.69593375E-12
   93.3839264         4.94759138E-12
   93.5107193         5.15764428E-12
   93.6375122         5.31478681E-12
   93.7643051         5.40628089E-12
   93.8910980         5.41824354E-12
   94.0178909         5.33602763E-12
   94.1446838         5.14473403E-12
   94.2714767         4.82979412E-12
   94.3982697         4.37765622E-12
   94.5250626         3.77653377E-12
   94.6518555         3.01718785E-12
   94.7786484         2.09373404E-12
   94.9054413         1.00441964E-12
   95.0322342        -2.47639393E-13
   95.1590271        -1.65381565E-12
   95.2858200        -3.19944570E-12
   95.4126129        -4.86346380E-12
   95.5394058        -6.61822116E-12
   95.6661987        -8.42952097E-12
   95.7929916        -1.02568839E-11
   95.9197769        -1.20540774E-11
   96.0465698        -1.37698958E-11
   96.1733627        -1.53491785E-11
   96.3001556        -1.67341176E-11
   96.4269485        -1.78657471E-11
   96.5537415        -1.86856468E-11
   96.6805344        -1.91378025E-11
   96.8073273        -1.91705748E-11
   96.9341202        -1.87386964E-11
   97.0609131        -1.78052781E-11
   97.1877060        -1.63437441E-11
   97.3144989        -1.43395903E-11
   97.4412918        -1.17919468E-11
   97.5680847        -8.71485262E-12
   97.6948776        -5.13817548E-12
   97.8216705        -1.10813149E-12
   97.9484634         3.31265419E-12
   98.0752563         8.04555728E-12