  -4.50000000         0.00000000    
  -4.37320757         0.00000000    
  -4.24641466         0.00000000    
  -4.11962223         0.00000000    
  -3.99282932         0.00000000    
  -3.86603665         0.00000000    
  -3.73924398         0.00000000    
  -3.61245155         0.00000000    
  -3.48565888         0.00000000    
  -3.35886621         0.00000000    
  -3.23207355         0.00000000    
  -3.10528088         0.00000000    
  -2.97848821         0.00000000    
  -2.85169554         0.00000000    
  -2.72490287         0.00000000    
  -2.59811020         0.00000000    
  -2.47131753         0.00000000    
  -2.34452486         0.00000000    
  -2.21773219         0.00000000    
  -2.09093952         0.00000000    
  -1.96414697         0.00000000    
  -1.83735430         0.00000000    
  -1.71056163         0.00000000    
  -1.58376896         0.00000000    
  -1.45697629         0.00000000    
  -1.33018374         0.00000000    
  -1.20339108         0.00000000    
  -1.07659841         0.00000000    
 -0.949805737         0.00000000    
 -0.823013067         0.00000000    
 -0.696220458         0.00000000    
 -0.569427788         0.00000000    
 -0.442635119         0.00000000    
 -0.315842479         0.00000000    
 -0.189049825         0.00000000    
  -6.22571707E-02     0.00000000    
   6.45354837E-02     0.00000000    
  0.191328138         0.00000000    
  0.318120778         0.00000000    
  0.444913447         0.00000000    
  0.571706116         0.00000000    
  0.698498726         0.00000000    
  0.825291395         0.00000000    
  0.952084064         0.00000000    
   1.07887673         0.00000000    
   1.20566940         0.00000000    
   1.33246195         0.00000000    
   1.45925462         0.00000000    
   1.58604729         0.00000000    
   1.71283996         0.00000000    
   1.83963263         0.00000000    
   1.96642530         0.00000000    
   2.09321785         0.00000000    
   2.22001052         0.00000000    
   2.34680319         0.00000000    
   2.47359586         0.00000000    
   2.60038853         0.00000000    
   2.72718120         0.00000000    
   2.85397387         0.00000000    
   2.98076653         0.00000000    
   3.10755920         0.00000000    
   3.23435187         0.00000000    
   3.36114454         0.00000000    
   3.48793697         0.00000000    
   3.61472964         0.00000000    
   3.74152231         0.00000000    
   3.86831498         0.00000000    
   3.99510765         0.00000000    
   4.12190056         0.00000000    
   4.24869299         0.00000000    
   4.37548542         0.00000000    
   4.50227833         0.00000000    
   4.62907076         0.00000000    
   4.75586367         0.00000000    
   4.88265610         0.00000000    
   5.00944901         0.00000000    
   5.13624144         0.00000000    
   5.26303434         0.00000000    
   5.38982677         0.00000000    
   5.51661968         0.00000000    
   5.64341211         0.00000000    
   5.77020502         0.00000000    
   5.89699745         0.00000000    
   6.02379036         0.00000000    
   6.15058279         0.00000000    
   6.27737522         0.00000000    
   6.40416813         0.00000000    
   6.53096056         0.00000000    
   6.65775347         0.00000000    
   6.78454590         0.00000000    
   6.91133881         0.00000000    
   7.03813124         0.00000000    
   7.16492414         0.00000000    
   7.29171658         0.00000000    
   7.41850948         0.00000000    
   7.54530191         0.00000000    
   7.67209482         0.00000000    
   7.79888725         0.00000000    
   7.92567968         0.00000000    
   8.05247211         0.00000000    
   8.17926502         0.00000000    
   8.30605793         0.00000000    
   8.43285084         0.00000000    
   8.55964279         0.00000000    
   8.68643570         0.00000000    
   8.81322861         0.00000000    
   8.94002151         0.00000000    
   9.06681347         0.00000000    
   9.19360638         0.00000000    
   9.32039928         0.00000000    
   9.44719219         0.00000000    
   9.57398415         0.00000000    
   9.70077705         0.00000000    
   9.82756996         0.00000000    
   9.95436192         0.00000000    
   10.0811548         0.00000000    
   10.2079477         0.00000000    
   10.3347406         0.00000000    
   10.4615326         0.00000000    
   10.5883255         0.00000000    
   10.7151184         0.00000000    
   10.8419113         0.00000000    
   10.9687033         0.00000000    
   11.0954962         0.00000000    
   11.2222891         0.00000000    
   11.3490820         0.00000000    
   11.4758739         0.00000000    
   11.6026669         0.00000000    
   11.7294598         0.00000000    
   11.8562517         0.00000000    
   11.9830446         0.00000000    
   12.1098375         0.00000000    
   12.2366304         0.00000000    
   12.3634224         0.00000000    
   12.4902153         0.00000000    
   12.6170082         0.00000000    
   12.7438011         0.00000000    
   12.8705931         0.00000000    
   12.9973860         0.00000000    
   13.1241789         0.00000000    
   13.2509708         0.00000000    
   13.3777637         0.00000000    
   13.5045567         0.00000000    
   13.6313496         0.00000000    
   13.7581415         0.00000000    
   13.8849344         0.00000000    
   14.0117273         0.00000000    
   14.1385202         0.00000000    
   14.2653122         0.00000000    
   14.3921051         0.00000000    
   14.5188980         0.00000000    
   14.6456909         0.00000000    
   14.7724829         0.00000000    
   14.8992758         0.00000000    
   15.0260687         0.00000000    
   15.1528606         0.00000000    
   15.2796535         0.00000000    
   15.4064465         0.00000000    
   15.5332394         0.00000000    
   15.6600313         0.00000000    
   15.7868242         0.00000000    
   15.9136171         0.00000000    
   16.0404091         0.00000000    
   16.1672020         0.00000000    
   16.2939949         0.00000000    
   16.4207878         0.00000000    
   16.5475807         0.00000000    
   16.6743736         0.00000000    
   16.8011646         0.00000000    
   16.9279575         0.00000000    
   17.0547504         0.00000000    
   17.1815434         0.00000000    
   17.3083363         0.00000000    
   17.4351292         0.00000000    
   17.5619221         0.00000000    
   17.6887150         0.00000000    
   17.8155060         0.00000000    
   17.9422989         0.00000000    
   18.0690918         0.00000000    
   18.1958847         0.00000000    
   18.3226776         0.00000000    
   18.4494705         0.00000000    
   18.5762634         0.00000000    
   18.7030544         0.00000000    
   18.8298473         0.00000000    
   18.9566402         0.00000000    
   19.0834332         0.00000000    
   19.2102261         0.00000000    
   19.3370190         0.00000000    
   19.4638119         0.00000000    
   19.5906048         0.00000000    
   19.7173958        -6.48149046E-35
   19.8441887        -4.89781063E-34
   19.9709816        -1.45855853E-33
   20.0977745        -2.79162074E-33
   20.2245674        -3.55700807E-33
   20.3513603        -3.31249680E-33
   20.4781532        -1.94506314E-33
   20.6049442         8.19694251E-34
   20.7317371         4.75295896E-33
   20.8585300         9.52917434E-33
   20.9853230         1.11817938E-32
   21.1121159         1.16417478E-32
   21.2389088         9.19161057E-33
   21.3657017         1.33716000E-33
   21.4924946        -6.97483320E-33
   21.6192856        -1.13662215E-32
   21.7460785        -9.57596416E-33
   21.8728714        -6.27668938E-34
   21.9996643         8.21927984E-33
   22.1264572         1.56065977E-32
   22.2532501         5.91700253E-33
   22.3800430        -2.09410880E-32
   22.5068340         5.59579392E-32
   22.6336269         7.69867785E-31
   22.7604198         2.11793782E-30
   22.8872128         4.34269969E-30
   23.0140057         7.31219101E-30
   23.1407986         1.05617848E-29
   23.2675915         1.36370992E-29
   23.3943844         1.55104603E-29
   23.5211754         1.49030611E-29
   23.6479683         1.21480807E-29
   23.7747612         7.93231788E-30
   23.9015541         2.72081239E-30
   24.0283470        -3.24296021E-30
   24.1551399        -9.01100266E-30
   24.2819328        -2.03681160E-29
   24.4087238        -3.75307684E-29
   24.5355167        -5.54317485E-29
   24.6623096        -7.09755018E-29
   24.7891026        -8.57942147E-29
   24.9158955        -9.99542174E-29
   25.0426884        -1.06745125E-28
   25.1694813        -1.03150593E-28
   25.2962742        -9.08731928E-29
   25.4230652        -7.92316686E-29
   25.5498581        -6.79504677E-29
   25.6766510        -6.44455641E-29
   25.8034439        -7.27416999E-29
   25.9302368        -9.28483183E-29
   26.0570297        -1.27071726E-28
   26.1838226        -1.75356896E-28
   26.3106136        -2.30882239E-28
   26.4374065        -2.84752931E-28
   26.5641994        -3.22538232E-28
   26.6909924        -3.37774746E-28
   26.8177853        -3.10896082E-28
   26.9445782        -2.37695553E-28
   27.0713711        -1.11508985E-28
   27.1981640         7.43347509E-29
   27.3249550         3.28040446E-28
   27.4517479         6.61674803E-28
   27.5785408         1.08522021E-27
   27.7053337         1.61317356E-27
   27.8321266         2.25348460E-27
   27.9589195         3.00944272E-27
   28.0857124         3.87226242E-27
   28.2125034         4.81189090E-27
   28.3392963         5.77594633E-27
   28.4660892         6.67459911E-27
   28.5928822         7.38644054E-27
   28.7196751         7.74976722E-27
   28.8464680         7.57073277E-27
   28.9732609         6.62851854E-27
   29.1000538         4.68866990E-27
   29.2268448         1.52267633E-27
   29.3536377        -3.07096790E-27
   29.4804306        -9.24175279E-27
   29.6072235        -1.70521606E-26
   29.7340164        -2.64434033E-26
   29.8608093        -3.71969580E-26
   29.9876022        -4.88970625E-26
   30.1143932        -6.08977138E-26
   30.2411861        -7.22955583E-26
   30.3679790        -8.19174241E-26
   30.4947720        -8.83264999E-26
   30.6215649        -8.98539996E-26
   30.7483578        -8.46607126E-26
   30.8751507        -7.08330101E-26
   31.0019417        -4.65171832E-26
   31.1287346        -1.00909554E-26
   31.2555275         3.96287388E-26
   31.3823204         1.03147236E-25
   31.5091133         1.80037534E-25
   31.6359062         2.68675054E-25
   31.7626991         3.65992116E-25
   31.8894920         4.67269579E-25
   32.0162849         5.65996705E-25
   32.1430779         6.53828034E-25
   32.2698708         7.20669501E-25
   32.3966637         7.54924997E-25
   32.5234528         7.43928916E-25
   32.6502457         6.74586268E-25
   32.7770386         5.34229621E-25
   32.9038315         3.11689223E-25
   33.0306244        -1.44224785E-27
   33.1574173        -4.09393665E-25
   33.2842102        -9.10705797E-25
   33.4110031        -1.49672029E-24
   33.5377960        -2.15017411E-24
   33.6645889        -2.84402934E-24
   33.7913818        -3.54069804E-24
   33.9181747        -4.19180293E-24
   34.0449677        -4.73865748E-24
   34.1717606        -5.11360701E-24
   34.2985535        -5.24234675E-24
   34.4253426        -5.04734743E-24
   34.5521355        -4.45239090E-24
   34.6789284        -3.38820334E-24
   34.8057213        -1.79907618E-24
   34.9325142         3.49740866E-25
   35.0593071         3.06418602E-24
   35.1861000         6.31349837E-24
   35.3128929         1.00228225E-23
   35.4396858         1.40669282E-23
   35.5664787         1.82657477E-23
   35.6932716         2.23824735E-23
   35.8200645         2.61249638E-23
   35.9468575         2.91511652E-23
   36.0736504         3.10791601E-23
   36.2004433         3.15023083E-23
   36.3272324         3.00096509E-23
   36.4540253         2.62115239E-23
   36.5808182         1.97699808E-23
   36.7076111         1.04330980E-23
   36.8344040        -1.92805592E-24
   36.9611969        -1.72815964E-23
   37.0879898        -3.53983377E-23
   37.2147827        -5.58192991E-23
   37.3415756        -7.78300898E-23
   37.4683685        -1.00445564E-22
   37.5951614        -1.22407723E-22
   37.7219543        -1.42200294E-22
   37.8487473        -1.58082677E-22
   37.9755402        -1.68145626E-22
   38.1023293        -1.70389664E-22
   38.2291222        -1.62827025E-22
   38.3559151        -1.43605956E-22
   38.4827080        -1.11154023E-22
   38.6095009        -6.43370531E-23
   38.7362938        -2.62648615E-24
   38.8630867         7.37324938E-23
   38.9898796         1.63562294E-22
   39.1166725         2.64615098E-22
   39.2434654         3.73468588E-22
   39.3702583         4.85468687E-22
   39.4970512         5.94733015E-22
   39.6238441         6.94226829E-22
   39.7506371         7.75923435E-22
   39.8774300         8.31058678E-22
   40.0042191         8.50479197E-22
   40.1310120         8.25093173E-22
   40.2578049         7.46409435E-22
   40.3845978         6.07157991E-22
   40.5113907         4.01972417E-22
   40.6381836         1.28106985E-22
   40.7649765        -2.13846711E-22
   40.8917694        -6.19280600E-22
   41.0185623        -1.07897936E-21
   41.1453552        -1.57866531E-21
   41.2721481        -2.09874099E-21
   41.3989410        -2.61427181E-21
   41.5257339        -3.09526785E-21
   41.6525269        -3.50731769E-21
   41.7793198        -3.81258611E-21
   41.9061089        -3.97122304E-21
   42.0329018        -3.94316998E-21
   42.1596947        -3.69034796E-21
   42.2864876        -3.17918346E-21
   42.4132805        -2.38341309E-21
   42.5400734        -1.28703730E-21
   42.6668663         1.12673293E-22
   42.7936592         1.80230458E-21
   42.9204521         3.74972119E-21
   43.0472450         5.90200920E-21
   43.1740379         8.18412337E-21
   43.3008308         1.04984996E-20
   43.4276237         1.27257965E-20
   43.5544167         1.47269928E-20
   43.6812096         1.63469808E-20
   43.8079987         1.74197484E-20
   43.9347916         1.77751872E-20
   44.0615845         1.72475106E-20
   44.1883774         1.56850828E-20
   44.3151703         1.29614622E-20
   44.4419632         8.98725273E-21
   44.5687561         3.72233497E-21
   44.6955490        -2.81218608E-21
   44.8223419        -1.05229442E-20
   44.9491348        -1.92350059E-20
   45.0759277        -2.86851341E-20
   45.2027206        -3.85184375E-20
   45.3295135        -4.82893695E-20
   45.4563065        -5.74676428E-20
   45.5830994        -6.54500197E-20
   45.7098885        -7.15780968E-20
   45.8366814        -7.51626776E-20
   45.9634743        -7.55143392E-20
   46.0902672        -7.19800032E-20
   46.2170601        -6.39845723E-20
   46.3438530        -5.10764092E-20
   46.4706459        -3.29750155E-20
   46.5974388        -9.61862176E-21
   46.7242317         1.87906985E-20
   46.8510246         5.17472817E-20
   46.9778175         8.84107829E-20
   47.1046104         1.27586729E-19
   47.2314034         1.67722488E-19
   47.3581963         2.06920704E-19
   47.4849892         2.42974172E-19
   47.6117783         2.73422975E-19
   47.7385712         2.95635928E-19
   47.8653641         3.06915466E-19
   47.9921570         3.04626476E-19
   48.1189499         2.86344130E-19
   48.2457428         2.50019398E-19
   48.3725357         1.94153856E-19
   48.4993286         1.17978496E-19
   48.6261215         2.16265515E-20
   48.7529144        -9.37090944E-20
   48.8797073        -2.25645617E-19
   49.0065002        -3.70517125E-19
   49.1332932        -5.23333237E-19
   49.2600861        -6.77797016E-19
   49.3868790        -8.26394688E-19
   49.5136681        -9.60563280E-19
   49.6404610        -1.07094247E-18
   49.7672539        -1.14771145E-18
   49.8940468        -1.18100877E-18
   50.0208397        -1.16142682E-18
   50.1476326        -1.08056920E-18
   50.2744255        -9.31653317E-19
   50.4012184        -7.10133780E-19
   50.5280113        -4.14318665E-19
   50.6548042        -4.59461543E-20
   50.7815971         3.89315373E-19
   50.9083900         8.81481091E-19
   51.0351830         1.41601926E-18
   51.1619759         1.97380845E-18
   51.2887688         2.53132219E-18
   51.4155579         3.06106768E-18
   51.5423508         3.53229200E-18
   51.6691437         3.91197369E-18
   51.7959366         4.16609102E-18
   51.9227295         4.26114400E-18
   52.0495224         4.16590201E-18
   52.1763153         3.85332369E-18
   52.3031082         3.30257236E-18
   52.4299011         2.50105606E-18
   52.5566940         1.44637297E-18
   52.6834869         1.48074997E-19
   52.8102798        -1.37088870E-18
   52.9370728        -3.07316209E-18
   53.0638657        -4.90651569E-18
   53.1906586        -6.80405395E-18
   53.3174477        -8.68516399E-18
   53.4442406        -1.04572802E-17
   53.5710335        -1.20185306E-17
   53.6978264        -1.32612214E-17
   53.8246193        -1.40761523E-17
   53.9514122        -1.43576502E-17
   54.0782051        -1.40092169E-17
   54.2049980        -1.29495596E-17
   54.3317909        -1.11188104E-17
   54.4585838        -8.48462729E-18
   54.5853767        -5.04786721E-18
   54.7121696        -8.47520725E-19
   54.8389626         4.03548251E-18
   54.9657555         9.47591971E-18
   55.0925484         1.53036966E-17
   55.2193375         2.13053602E-17
   55.3461304         2.72278393E-17
   55.4729233         3.27847047E-17
   55.5997162         3.76648255E-17
   55.7265091         4.15435283E-17
   55.8533020         4.40958569E-17
   55.9800949         4.50118371E-17
   56.1068878         4.40131025E-17
   56.2336807         4.08703853E-17
   56.3604736         3.54210484E-17
   56.4872665         2.75860218E-17
   56.6140594         1.73850270E-17
   56.7408524         4.94931277E-18
   56.8676453        -9.46912690E-18
   56.9944382        -2.54927106E-17
   57.1212273        -4.26186811E-17
   57.2480202        -6.02253330E-17
   57.3748131        -7.75847107E-17
   57.5016060        -9.38818232E-17
   57.6283989        -1.08240415E-16
   57.7551918        -1.19755159E-16
   57.8819847        -1.27529042E-16
   58.0087776        -1.30715554E-16
   58.1355705        -1.28563812E-16
   58.2623634        -1.20464960E-16
   58.3891563        -1.05998404E-16
   58.5159492        -8.49746497E-17
   58.6427422        -5.74735214E-17
   58.7695351        -2.38745881E-17
   58.8963280         1.51222695E-17
   59.0231171         5.84883463E-17
   59.1499100         1.04871427E-16
   59.2767029         1.52616477E-16
   59.4034958         1.99802751E-16
   59.5302887         2.44297193E-16
   59.6570816         2.83824012E-16
   59.7838745         3.16049142E-16
   59.9106674         3.38677283E-16
   60.0374603         3.49558533E-16
   60.1642532         3.46801335E-16
   60.2910461         3.28886985E-16
   60.4178391         2.94780621E-16
   60.5446320         2.44033554E-16
   60.6714249         1.76870763E-16
   60.7982178         9.42587925E-17
   60.9250069        -2.05213315E-18
   61.0517998        -1.09515841E-16
   61.1785927        -2.24812391E-16
   61.3053856        -3.43906520E-16
   61.4321785        -4.62145358E-16
   61.5589714        -5.74393212E-16
   61.6857643        -6.75203049E-16
   61.8125572        -7.59020507E-16
   61.9393501        -8.20414513E-16
   62.0661430        -8.54327913E-16
   62.1929359        -8.56336281E-16
   62.3197289        -8.22909819E-16
   62.4465218        -7.51660426E-16
   62.5733147        -6.41565518E-16
   62.7001076        -4.93155764E-16
   62.8268967        -3.08653009E-16
   62.9536896        -9.20491946E-17
   63.0804825         1.50885288E-16
   63.2072754         4.12669555E-16
   63.3340683         6.84261696E-16
   63.4608612         9.55292758E-16
   63.5876541         1.21438140E-15
   63.7144470         1.44952187E-15
   63.8412399         1.64854221E-15
   63.9680328         1.79960853E-15
   64.0948257         1.89176931E-15
   64.2216187         1.91550911E-15
   64.3484116         1.86329567E-15
   64.4752045         1.73009137E-15
   64.6019974         1.51380564E-15
   64.7287903         1.21566073E-15
   64.8555832         8.40446948E-16
   64.9823761         3.96649515E-16
   65.1091690        -1.03577306E-16
   65.2359619        -6.44594455E-16
   65.3627548        -1.20763510E-15
   65.4895477        -1.77132313E-15
   65.6163330        -2.31235865E-15
   65.7431259        -2.80634552E-15
   65.8699188        -3.22873755E-15
   65.9967117        -3.55588031E-15
   66.1235046        -3.76610034E-15
   66.2502975        -3.84080991E-15
   66.3770905        -3.76556713E-15
   66.5038834        -3.53105018E-15
   66.6306763        -3.13389506E-15
   66.7574692        -2.57734486E-15
   66.8842621        -1.87166139E-15
   67.0110550        -1.03427297E-15
   67.1378479        -8.96207445E-17
   67.2646408         9.31316431E-16
   67.3914337         1.99181915E-15
   67.5182266         3.05054257E-15
   67.6450195         4.06292652E-15
   67.7718124         4.98286062E-15
   67.8986053         5.76455472E-15
   68.0253983         6.36455305E-15
   68.1521912         6.74380358E-15
   68.2789841         6.86970825E-15
   68.4057770         6.71806098E-15
   68.5325699         6.27475485E-15
   68.6593628         5.53721828E-15
   68.7861557         4.51542083E-15
   68.9129486         3.23244353E-15
   69.0397415         1.72449322E-15
   69.1665344         4.03545124E-17
   69.2933273        -1.75976389E-15
   69.4201126        -3.60597680E-15
   69.5469055        -5.42103543E-15
   69.6736984        -7.12315152E-15
   69.8004913        -8.62925996E-15
   69.9272842        -9.85858005E-15
   70.0540771        -1.07363738E-14
   70.1808701        -1.11977383E-14
   70.3076630        -1.11912703E-14
   70.4344559        -1.06824178E-14
   70.5612488        -9.65637296E-15
   70.6880417        -8.12031089E-15
   70.8148346        -6.10484089E-15
   70.9416275        -3.66453770E-15
   71.0684204        -8.77462341E-16
   71.1952133         2.15640972E-15
   71.3220062         5.31784013E-15
   71.4487991         8.47206250E-15
   71.5755920         1.14735009E-14
   71.7023849         1.41713601E-14
   71.8291779         1.64159034E-14
   71.9559708         1.80652121E-14
   72.0827637         1.89921287E-14
   72.2095566         1.90912061E-14
   72.3363495         1.82851899E-14
   72.4631424         1.65308780E-14
   72.5899353         1.38239741E-14
   72.7167282         1.02026084E-14
   72.8435211         5.74937631E-15
   72.9703140         5.91580992E-16
   73.0971069        -5.10044997E-15
   73.2238922        -1.11170059E-14
   73.3506851        -1.72146877E-14
   73.4774780        -2.31239859E-14
   73.6042709        -2.85586577E-14
   73.7310638        -3.32266021E-14
   73.8578568        -3.68419013E-14
   73.9846497        -3.91376554E-14
   74.1114426        -3.98790633E-14
   74.2382355        -3.88763084E-14
   74.3650284        -3.59966776E-14
   74.4918213        -3.11752069E-14
   74.6186142        -2.44236140E-14
   74.7454071        -1.58366362E-14
   74.8722000        -5.59553226E-15
   74.9989929         6.03158694E-15
   75.1257858         1.86930803E-14
   75.2525787         3.19607113E-14
   75.3793716         4.53402642E-14
   75.5061646         5.82857601E-14
   75.6329575         7.02169442E-14
   75.7597504         8.05395179E-14
   75.8865433         8.86678155E-14
   76.0133362         9.40487380E-14
   76.1401291         9.61867169E-14
   76.2669220         9.46681766E-14
   76.3937149         8.91850748E-14
   76.5205078         7.95560110E-14
   76.6473007         6.57443731E-14
   76.7740936         4.78722930E-14
   76.9008865         2.62296204E-14
   77.0276718         1.27732632E-15
   77.1544647        -2.63554200E-14
   77.2812576        -5.58807286E-14
   77.4080505        -8.63680804E-14
   77.5348434        -1.16767165E-13
   77.6616364        -1.45936919E-13
   77.7884293        -1.72679986E-13
   77.9152222        -1.95782464E-13
   78.0420151        -2.14056542E-13
   78.1688080        -2.26386184E-13
   78.2956009        -2.31773476E-13
   78.4223938        -2.29383624E-13
   78.5491867        -2.18588724E-13
   78.6759796        -1.99006190E-13
   78.8027725        -1.70532086E-13
   78.9295654        -1.33366679E-13
   79.0563583        -8.80314634E-14
   79.1831512        -3.53758770E-14
   79.3099442         2.34266511E-14
   79.4367371         8.68944673E-14
   79.5635300         1.53264933E-13
   79.6903229         2.20533525E-13
   79.8171158         2.86503758E-13
   79.9439087         3.48847280E-13
   80.0707016         4.05172776E-13
   80.1974945         4.53101234E-13
   80.3242874         4.90346750E-13
   80.4510803         5.14799141E-13
   80.5778732         5.24606779E-13
   80.7046585         5.18255957E-13
   80.8314514         4.94645069E-13
   80.9582443         4.53150104E-13
   81.0850372         3.93677902E-13
   81.2118301         3.16707543E-13
   81.3386230         2.23314138E-13
   81.4654160         1.15176084E-13
   81.5922089        -5.43714684E-15
   81.7190018        -1.35696521E-13
   81.8457947        -2.72265175E-13
   81.9725876        -4.11369100E-13
   82.0993805        -5.48886349E-13
   82.2261734        -6.80452493E-13
   82.3529663        -8.01580753E-13
   82.4797592        -9.07792938E-13
   82.6065521        -9.94758095E-13
   82.7333450        -1.05843567E-12
   82.8601379        -1.09521702E-12
   82.9869308        -1.10206484E-12
   83.1137238        -1.07664084E-12
   83.2405167        -1.01742096E-12
   83.3673096        -9.23792076E-13
   83.4941025        -7.96127866E-13
   83.6208954        -6.35838658E-13
   83.7476883        -4.45393017E-13
   83.8744812        -2.28308556E-13
   84.0012741         1.08879555E-14
   84.1280670         2.66734416E-13
   84.2548599         5.32937572E-13
   84.3816528         8.02508233E-13
   84.5084381         1.06792537E-12
   84.6352310         1.32132348E-12
   84.7620239         1.55470168E-12
   84.8888168         1.76014650E-12
   85.0156097         1.93006743E-12
   85.1424026         2.05742953E-12
   85.2691956         2.13599125E-12
   85.3959885         2.16052198E-12
   85.5227814         2.12701037E-12
   85.6495743         2.03284199E-12
   85.7763672         1.87695042E-12
   85.9031601         1.65993001E-12
   86.0299530         1.38410464E-12
   86.1567459         1.05355644E-12
   86.2835388         6.74099502E-13
   86.4103317         2.53208153E-13
   86.5371246        -2.00108105E-13
   86.6639175        -6.75476548E-13
   86.7907104        -1.16138143E-12
   86.9175034        -1.64542501E-12
   87.0442963        -2.11462423E-12
   87.1710892        -2.55574056E-12
   87.2978821        -2.95562620E-12
   87.4246750        -3.30158492E-12
   87.5514679        -3.58173777E-12
   87.6782608        -3.78537913E-12
   87.8050537        -3.90331170E-12
   87.9318466        -3.92816031E-12
   88.0586395        -3.85464100E-12
   88.1854324        -3.67978868E-12
   88.3122177        -3.40312739E-12
   88.4390106        -3.02677718E-12
   88.5658035        -2.55550203E-12
   88.6925964        -1.99667691E-12
   88.8193893        -1.36019722E-12
   88.9461823        -6.58306959E-13
   89.0729752         9.46340445E-14
   89.1997681         8.82446026E-13
   89.3265610         1.68748468E-12
   89.4533539         2.49103819E-12
   89.5801468         3.27376581E-12
   89.7069397         4.01616023E-12
   89.8337326         4.69902546E-12
   89.9605255         5.30395216E-12
   90.0873184         5.81378869E-12
   90.2141113         6.21307780E-12
   90.3409042         6.48846515E-12
   90.4676971         6.62905798E-12
   90.5944901         6.62672434E-12
   90.7212830         6.47632772E-12
   90.8480759         6.17590094E-12
   90.9748688         5.72672899E-12
   91.1016617         5.13336769E-12
   91.2284546         4.40358036E-12
   91.3552475         3.54820839E-12
   91.4820404         2.58096344E-12
   91.6088333         1.51817014E-12
   91.7356262         3.78445024E-13
   91.8624191        -8.17660664E-13
   91.9892120        -2.04805595E-12
   92.1159973        -3.28952577E-12
   92.2427902        -4.51815972E-12
   92.3695831        -5.70978464E-12
   92.4963760        -6.84038329E-12
   92.6231689        -7.88650829E-12
   92.7499619        -8.82565809E-12
   92.8767548        -9.63664738E-12
   93.0035477        -1.02999154E-11
   93.1303406        -1.07978340E-11
   93.2571335        -1.11149596E-11
   93.3839264        -1.12382603E-11
   93.5107193        -1.11573216E-11
   93.6375122        -1.08645089E-11
   93.7643051        -1.03551282E-11
   93.8910980        -9.62755396E-12
   94.0178909        -8.68334311E-12
   94.1446838        -7.52736328E-12
   94.2714767        -6.16786526E-12
   94.3982697        -4.61658619E-12
   94.5250626        -2.88881744E-12
   94.6518555        -1.00346511E-12
   94.7786484         1.01691854E-12
   94.9054413         3.14613635E-12
   95.0322342         5.35438317E-12
   95.1590271         7.60834624E-12
   95.2858200         9.87136848E-12
   95.4126129         1.21036913E-11
   95.5394058         1.42627932E-11
   95.6661987         1.63038420E-11
   95.7929916         1.81802212E-11
   95.9197769         1.98442443E-11
   96.0465698         2.12479357E-11
   96.1733627         2.23439323E-11
   96.3001556         2.30865275E-11
   96.4269485         2.34328251E-11
   96.5537415         2.33439049E-11
   96.6805344         2.27861115E-11
   96.8073273         2.17323659E-11
   96.9341202         2.01634352E-11
   97.0609131         1.80691538E-11
   97.1877060         1.54495999E-11
   97.3144989         1.23160987E-11
   97.4412918         8.69205229E-12
   97.5680847         4.61355390E-12
   97.6948776         1.29728083E-13
   97.8216705        -4.69722048E-12
   97.9484634        -9.79230152E-12
   98.0752563        -1.50683892E-11