  -4.50000000         0.00000000    
  -4.37320757         0.00000000    
  -4.24641466         0.00000000    
  -4.11962223         0.00000000    
  -3.99282932         0.00000000    
  -3.86603665         0.00000000    
  -3.73924398        -9.93686591E-33
  -3.61245155        -7.88996510E-32
  -3.48565888         8.04024853E-32
  -3.35886621         1.16123570E-30
  -3.23207355        -4.53144938E-31
  -3.10528088         1.15122876E-29
  -2.97848821         7.35190293E-29
  -2.85169554         2.13103378E-28
  -2.72490287         3.75293835E-28
  -2.59811020         2.36273928E-28
  -2.47131753        -9.25281457E-28
  -2.34452486        -3.98079050E-27
  -2.21773219        -8.81656986E-27
  -2.09093952        -1.20416235E-26
  -1.96414697        -4.29764565E-27
  -1.83735430         3.01810910E-26
  -1.71056163         1.07136420E-25
  -1.58376896         2.24239358E-25
  -1.45697629         3.31122048E-25
  -1.33018374         2.98089557E-25
  -1.20339108        -9.01335399E-26
  -1.07659841        -1.07652574E-24
 -0.949805737        -2.77567750E-24
 -0.823013067        -4.92548420E-24
 -0.696220458        -6.63708044E-24
 -0.569427788        -6.34817394E-24
 -0.442635119        -2.27943804E-24
 -0.315842479         6.31994139E-24
 -0.189049825         1.70740928E-23
  -6.22571707E-02     2.19595967E-23
   6.45354837E-02     5.50576752E-24
  0.191328138        -5.44357822E-23
  0.318120778        -1.81225887E-22
  0.444913447        -3.87831284E-22
  0.571706116        -6.59694108E-22
  0.698498726        -9.36164082E-22
  0.825291395        -1.09877363E-21
  0.952084064        -9.77960936E-22
   1.07887673        -3.90067459E-22
   1.20566940         7.88856664E-22
   1.33246195         2.51801170E-21
   1.45925462         4.47920038E-21
   1.58604729         6.00003899E-21
   1.71283996         6.07052948E-21
   1.83963263         3.50931658E-21
   1.96642530        -2.68936269E-21
   2.09321785        -1.28495319E-20
   2.22001052        -2.60439835E-20
   2.34680319        -3.96354415E-20
   2.47359586        -4.91560803E-20
   2.60038853        -4.87494144E-20
   2.72718120        -3.23100495E-20
   2.85397387         4.72310598E-21
   2.98076653         6.32139308E-20
   3.10755920         1.38367322E-19
   3.23435187         2.18687529E-19
   3.36114454         2.86588304E-19
   3.48793697         3.21139457E-19
   3.61472964         3.02934789E-19
   3.74152231         2.20379294E-19
   3.86831498         7.60051416E-20
   3.99510765        -1.09047246E-19
   4.12190056        -2.94257431E-19
   4.24869299        -4.23952708E-19
   4.37548542        -4.36660942E-19
   4.50227833        -2.78211446E-19
   4.62907076         8.42085826E-20
   4.75586367         6.50649206E-19
   4.88265610         1.38304154E-18
   5.00944901         2.20790263E-18
   5.13624144         3.02684080E-18
   5.26303434         3.73209003E-18
   5.38982677         4.22254692E-18
   5.51661968         4.41558979E-18
   5.64341211         4.25180761E-18
   5.77020502         3.69319889E-18
   5.89699745         2.71927210E-18
   6.02379036         1.32797313E-18
   6.15058279        -4.52209870E-19
   6.27737522        -2.53712548E-18
   6.40416813        -4.75471688E-18
   6.53096056        -6.82014303E-18
   6.65775347        -8.33838837E-18
   6.78454590        -8.85344727E-18
   6.91133881        -7.95324564E-18
   7.03813124        -5.42105760E-18
   7.16492414        -1.40217640E-18
   7.29171658         3.46431099E-18
   7.41850948         8.00545976E-18
   7.54530191         1.06116726E-17
   7.67209482         9.48580700E-18
   7.79888725         3.01404370E-18
   7.92567968        -9.81813012E-18
   8.05247211        -2.90739493E-17
   8.17926502        -5.36899378E-17
   8.30605793        -8.15568519E-17
   8.43285084        -1.09871085E-16
   8.55964279        -1.35686578E-16
   8.68643570        -1.56521405E-16
   8.81322861        -1.70829711E-16
   8.94002151        -1.78161165E-16
   9.06681347        -1.78902173E-16
   9.19360638        -1.73610096E-16
   9.32039928        -1.62091970E-16
   9.44719219        -1.42494182E-16
   9.57398415        -1.10730122E-16
   9.70077705        -6.05464842E-17
   9.82756996         1.55799038E-17
   9.95436192         1.24708264E-16
   10.0811548         2.71064043E-16
   10.2079477         4.53436536E-16
   10.3347406         6.62885390E-16
   10.4615326         8.81347311E-16
   10.5883255         1.08168352E-15
   10.7151184         1.22955419E-15
   10.8419113         1.28726519E-15
   10.9687033         1.21943723E-15
   11.0954962         1.00000784E-15
   11.2222891         6.19741079E-16
   11.3490820         9.31253764E-17
   11.4758739        -5.36681293E-16
   11.6026669        -1.19624335E-15
   11.7294598        -1.78481446E-15
   11.8562517        -2.18269443E-15
   11.9830446        -2.26511200E-15
   12.1098375        -1.92084033E-15
   12.2366304        -1.07376641E-15
   12.3634224         2.95347074E-16
   12.4902153         2.13032047E-15
   12.6170082         4.28785739E-15
   12.7438011         6.53592899E-15
   12.8705931         8.56443060E-15
   12.9973860         1.00087497E-14
   13.1241789         1.04850024E-14
   13.2509708         9.63386475E-15
   13.3777637         7.16833226E-15
   13.5045567         2.91984962E-15
   13.6313496        -3.12273371E-15
   13.7581415        -1.07862980E-14
   13.8849344        -1.97020304E-14
   14.0117273        -2.93110364E-14
   14.1385202        -3.88863848E-14
   14.2653122        -4.75699023E-14
   14.3921051        -5.44202033E-14
   14.5188980        -5.84689157E-14
   14.6456909        -5.87816539E-14
   14.7724829        -5.45214441E-14
   14.8992758        -4.50126522E-14
   15.0260687        -2.98041858E-14
   15.1528606        -8.73003740E-15
   15.2796535         1.80352102E-14
   15.4064465         4.99300003E-14
   15.5332394         8.59748674E-14
   15.6600313         1.24763562E-13
   15.7868242         1.64484271E-13
   15.9136171         2.02977514E-13
   16.0404091         2.37833733E-13
   16.1672020         2.66529827E-13
   16.2939949         2.86597325E-13
   16.4207878         2.95807514E-13
   16.5475807         2.92355306E-13
   16.6743736         2.75016121E-13
   16.8011646         2.43251952E-13
   16.9279575         1.97243467E-13
   17.0547504         1.37830977E-13
   17.1815434         6.63587430E-14
   17.3083363        -1.55725042E-14
   17.4351292        -1.06424269E-13
   17.5619221        -2.05075608E-13
   17.6887150        -3.11170713E-13
   17.8155060        -4.25401169E-13
   17.9422989        -5.49665023E-13
   18.0690918        -6.87042112E-13
   18.1958847        -8.41537018E-13
   18.3226776        -1.01754640E-12
   18.4494705        -1.21903561E-12
   18.5762634        -1.44842688E-12
   18.7030544        -1.70523524E-12
   18.8298473        -1.98452040E-12
   18.9566402        -2.27526266E-12
   19.0834332        -2.55880755E-12
   19.2102261        -2.80756538E-12
   19.3370190        -2.98417627E-12
   19.4638119        -3.04138594E-12
   19.5906048        -2.92287136E-12
   19.7173958        -2.56524663E-12
   19.8441887        -1.90142563E-12
   19.9709816        -8.65457825E-13
   20.0977745         6.01192165E-13
   20.2245674         2.54204860E-12
   20.3513603         4.97704091E-12
   20.4781532         7.89342116E-12
   20.6049442         1.12368266E-11
   20.7317371         1.49033130E-11
   20.8585300         1.87332389E-11
   20.9853230         2.25079556E-11
   21.1121159         2.59502558E-11
   21.2389088         2.87293557E-11
   21.3657017         3.04710840E-11
   21.4924946         3.07736614E-11
   21.6192856         2.92291226E-11
   21.7460785         2.54500622E-11
   21.8728714         1.91010211E-11
   21.9996643         9.93324433E-12
   22.1264572        -2.17871229E-12
   22.2532501        -1.72006454E-11
   22.3800430        -3.49050407E-11
   22.5068340        -5.48427831E-11
   22.6336269        -7.63232186E-11
   22.7604198        -9.84054643E-11
   22.8872128        -1.19903781E-10
   23.0140057        -1.39409539E-10
   23.1407986        -1.55331387E-10
   23.2675915        -1.65954986E-10
   23.3943844        -1.69521883E-10
   23.5211754        -1.64326650E-10
   23.6479683        -1.48829254E-10
   23.7747612        -1.21778934E-10
   23.9015541        -8.23434168E-11
   24.0283470        -3.02375555E-11
   24.1551399         3.41574997E-11
   24.2819328         1.09692699E-10
   24.4087238         1.94376473E-10
   24.5355167         2.85335700E-10
   24.6623096         3.78821086E-10
   24.7891026         4.70262995E-10
   24.9158955         5.54383595E-10
   25.0426884         6.25367147E-10
   25.1694813         6.77088219E-10
   25.2962742         7.03393899E-10
   25.4230652         6.98431757E-10
   25.5498581         6.57013610E-10
   25.6766510         5.74998438E-10
   25.8034439         4.49677268E-10
   25.9302368         2.80139661E-10
   26.0570297         6.75982048E-11
   26.1838226        -1.84351395E-10
   26.3106136        -4.69557448E-10
   26.4374065        -7.79247666E-10
   26.5641994        -1.10209086E-09
   26.6909924        -1.42439804E-09
   26.8177853        -1.73047021E-09
   26.9445782        -2.00309458E-09
   27.0713711        -2.22418395E-09
   27.1981640        -2.37554132E-09
   27.3249550        -2.43973042E-09
   27.4517479        -2.40102227E-09
   27.5785408        -2.24637353E-09
   27.7053337        -1.96640615E-09
   27.8321266        -1.55632296E-09
   27.9589195        -1.01672226E-09
   28.0857124        -3.54252239E-10
   28.2125034         4.17943180E-10
   28.3392963         1.28003252E-09
   28.4660892         2.20559615E-09
   28.5928822         3.16204463E-09
   28.7196751         4.11137435E-09
   28.8464680         5.01125985E-09
   28.9732609         5.81646731E-09
   29.1000538         6.48055209E-09
   29.2268448         6.95781033E-09
   29.3536377         7.20538917E-09
   29.4804306         7.18549531E-09
   29.6072235         6.86760471E-09
   29.7340164         6.23057161E-09
   29.8608093         5.26451371E-09
   29.9876022         3.97238598E-09
   30.1143932         2.37113795E-09
   30.2411861         4.92343888E-10
   30.3679790        -1.61774649E-09
   30.4947720        -3.89880128E-09
   30.6215649        -6.27767305E-09
   30.7483578        -8.67033023E-09
   30.8751507        -1.09844303E-08
   31.0019417        -1.31224418E-08
   31.1287346        -1.49852646E-08
   31.2555275        -1.64761662E-08
   31.3823204        -1.75048989E-08
   31.5091133        -1.79918835E-08
   31.6359062        -1.78721393E-08
   31.7626991        -1.70989374E-08
   31.8894920        -1.56468580E-08
   32.0162849        -1.35141844E-08
   32.1430779        -1.07244080E-08
   32.2698708        -7.32682004E-09
   32.3966637        -3.39604433E-09
   32.5234528         9.69446412E-10
   32.6502457         5.64985703E-09
   32.7770386         1.05075282E-08
   32.9038315         1.53912350E-08
   33.0306244         2.01411261E-08
   33.1574173         2.45941632E-08
   33.2842102         2.85897794E-08
   33.4110031         3.19755955E-08
   33.5377960         3.46128388E-08
   33.6645889         3.63813903E-08
   33.7913818         3.71841367E-08
   33.9181747         3.69505386E-08
   34.0449677         3.56391645E-08
   34.1717606         3.32393242E-08
   34.2985535         2.97715204E-08
   34.4253426         2.52868979E-08
   34.5521355         1.98657517E-08
   34.6789284         1.36151259E-08
   34.8057213         6.66574529E-09
   34.9325142        -8.31656466E-10
   35.0593071        -8.71030892E-09
   35.1861000        -1.67915992E-08
   35.3128929        -2.48892817E-08
   35.4396858        -3.28135528E-08
   35.5664787        -4.03748999E-08
   35.6932716        -4.73876263E-08
   35.8200645        -5.36730873E-08
   35.9468575        -5.90625611E-08
   36.0736504        -6.33999164E-08
   36.2004433        -6.65439899E-08
   36.3272324        -6.83709374E-08
   36.4540253        -6.87766288E-08
   36.5808182        -6.76790322E-08
   36.7076111        -6.50208278E-08
   36.8344040        -6.07722086E-08
   36.9611969        -5.49338637E-08
   37.0879898        -4.75400093E-08
   37.2147827        -3.86614332E-08
   37.3415756        -2.84082908E-08
   37.4683685        -1.69324483E-08
   37.5951614        -4.42899140E-09
   37.7219543         8.86325147E-09
   37.8487473         2.26626220E-08
   37.9755402         3.66472399E-08
   38.1023293         5.04595157E-08
   38.2291222         6.37128323E-08
   38.3559151         7.60003402E-08
   38.4827080         8.69060628E-08
   38.6095009         9.60179420E-08
   38.7362938         1.02942685E-07
   38.8630867         1.07321860E-07
   38.9898796         1.08848852E-07
   39.1166725         1.07285878E-07
   39.2434654         1.02480286E-07
   39.3702583         9.43794731E-08
   39.4970512         8.30432327E-08
   39.6238441         6.86531934E-08
   39.7506371         5.15180290E-08
   39.8774300         3.20741158E-08
   40.0042191         1.08810436E-08
   40.1310120        -1.13884564E-08
   40.2578049        -3.39641986E-08
   40.3845978        -5.59997595E-08
   40.5113907        -7.65986812E-08
   40.6381836        -9.48453405E-08
   40.7649765        -1.09839149E-07
   40.8917694        -1.20731301E-07
   41.0185623        -1.26762586E-07
   41.1453552        -1.27300780E-07
   41.2721481        -1.21876184E-07
   41.3989410        -1.10213684E-07
   41.5257339        -9.22596826E-08
   41.6525269        -6.82028158E-08
   41.7793198        -3.84870305E-08
   41.9061089        -3.81603238E-09
   42.0329018         3.48512295E-08
   42.1596947         7.63146133E-08
   42.2864876         1.19156105E-07
   42.4132805         1.61771794E-07
   42.5400734         2.02411940E-07
   42.6668663         2.39227319E-07
   42.7936592         2.70320925E-07
   42.9204521         2.93802202E-07
   43.0472450         3.07842839E-07
   43.1740379         3.10730854E-07
   43.3008308         3.00921869E-07
   43.4276237         2.77083899E-07
   43.5544167         2.38135655E-07
   43.6812096         1.83274750E-07
   43.8079987         1.11995810E-07
   43.9347916         2.40963871E-08
   44.0615845        -8.03282916E-08
   44.1883774        -2.00903415E-07
   44.3151703        -3.37003627E-07
   44.4419632        -4.87792420E-07
   44.5687561        -6.52270330E-07
   44.6955490        -8.29329849E-07
   44.8223419        -1.01781472E-06
   44.9491348        -1.21657968E-06
   45.0759277        -1.42455065E-06
   45.2027206        -1.64077971E-06
   45.3295135        -1.86449256E-06
   45.4563065        -2.09512700E-06
   45.5830994        -2.33235755E-06
   45.7098885        -2.57610964E-06
   45.8366814        -2.82655355E-06
   45.9634743        -3.08408607E-06
   46.0902672        -3.34929268E-06
   46.2170601        -3.62289757E-06
   46.3438530        -3.90569494E-06
   46.4706459        -4.19847311E-06
   46.5974388        -4.50192374E-06
   46.7242317        -4.81655206E-06
   46.8510246        -5.14258090E-06
   46.9778175        -5.47984973E-06
   47.1046104        -5.82773873E-06
   47.2314034        -6.18508739E-06
   47.3581963        -6.55013491E-06
   47.4849892        -6.92047615E-06
   47.6117783        -7.29304793E-06
   47.7385712        -7.66413268E-06
   47.8653641        -8.02939758E-06
   47.9921570        -8.38394772E-06
   48.1189499        -8.72242344E-06
   48.2457428        -9.03911041E-06
   48.3725357        -9.32808325E-06
   48.4993286        -9.58336568E-06
   48.6261215        -9.79909964E-06
   48.7529144        -9.96973267E-06
   48.8797073        -1.00902107E-05
   49.0065002        -1.01561536E-05
   49.1332932        -1.01640326E-05
   49.2600861        -1.01113328E-05
   49.3868790        -9.99667827E-06
   49.5136681        -9.81994162E-06
   49.6404610        -9.58230885E-06
   49.7672539        -9.28631380E-06
   49.8940468        -8.93582001E-06
   50.0208397        -8.53596703E-06
   50.1476326        -8.09307403E-06
   50.2744255        -7.61450292E-06
   50.4012184        -7.10848235E-06
   50.5280113        -6.58390081E-06
   50.6548042        -6.05007290E-06
   50.7815971        -5.51648964E-06
   50.9083900        -4.99255884E-06
   51.0351830        -4.48734727E-06
   51.1619759        -4.00931776E-06
   51.2887688        -3.56610235E-06
   51.4155579        -3.16428986E-06
   51.5423508        -2.80924655E-06
   51.6691437        -2.50498306E-06
   51.7959366        -2.25404438E-06
   51.9227295        -2.05748051E-06
   52.0495224        -1.91483832E-06
   52.1763153        -1.82421479E-06
   52.3031082        -1.78234939E-06
   52.4299011        -1.78475818E-06
   52.5566940        -1.82591782E-06
   52.6834869        -1.89945604E-06
   52.8102798        -1.99839201E-06
   52.9370728        -2.11536371E-06
   53.0638657        -2.24287760E-06
   53.1906586        -2.37355516E-06
   53.3174477        -2.50035328E-06
   53.4442406        -2.61677587E-06
   53.5710335        -2.71705903E-06
   53.6978264        -2.79632923E-06
   53.8246193        -2.85070701E-06
   53.9514122        -2.87739545E-06
   54.0782051        -2.87471721E-06
   54.2049980        -2.84212115E-06
   54.3317909        -2.78014886E-06
   54.4585838        -2.69036491E-06
   54.5853767        -2.57527358E-06
   54.7121696        -2.43819954E-06
   54.8389626        -2.28315889E-06
   54.9657555        -2.11471638E-06
   55.0925484        -1.93784922E-06
   55.2193375        -1.75777541E-06
   55.3461304        -1.57983459E-06
   55.4729233        -1.40934014E-06
   55.5997162        -1.25146312E-06
   55.7265091        -1.11110774E-06
   55.8533020        -9.92832838E-07
   55.9800949        -9.00763609E-07
   56.1068878        -8.38502444E-07
   56.2336807        -8.09103597E-07
   56.3604736        -8.14994621E-07
   56.4872665        -8.57946702E-07
   56.6140594        -9.39041854E-07
   56.7408524        -1.05862932E-06
   56.8676453        -1.21629603E-06
   56.9944382        -1.41085718E-06
   57.1212273        -1.64030814E-06
   57.2480202        -1.90180629E-06
   57.3748131        -2.19167100E-06
   57.5016060        -2.50535254E-06
   57.6283989        -2.83744680E-06
   57.7551918        -3.18170873E-06
   57.8819847        -3.53108044E-06
   58.0087776        -3.87775890E-06
   58.1355705        -4.21326331E-06
   58.2623634        -4.52855056E-06
   58.3891563        -4.81415873E-06
   58.5159492        -5.06036486E-06
   58.6427422        -5.25739506E-06
   58.7695351        -5.39564235E-06
   58.8963280        -5.46591536E-06
   59.0231171        -5.45970624E-06
   59.1499100        -5.36947482E-06
   59.2767029        -5.18889783E-06
   59.4034958        -4.91318588E-06
   59.5302887        -4.53929715E-06
   59.6570816        -4.06618301E-06
   59.7838745        -3.49498032E-06
   59.9106674        -2.82915266E-06
   60.0374603        -2.07456719E-06
   60.1642532        -1.23953043E-06
   60.2910461        -3.34724319E-07
   60.4178391         6.26889403E-07
   60.5446320         1.63030199E-06
   60.6714249         2.65870267E-06
   60.7982178         3.69382110E-06
   60.9250069         4.71634985E-06
   61.0517998         5.70636303E-06
   61.1785927         6.64386016E-06
   61.3053856         7.50927757E-06
   61.4321785         8.28401699E-06
   61.5589714         8.95099856E-06
   61.6857643         9.49517380E-06
   61.8125572         9.90400076E-06
   61.9393501         1.01678752E-05
   62.0661430         1.02804615E-05
   62.1929359         1.02389795E-05
   62.3197289         1.00443804E-05
   62.4465218         9.70136898E-06
   62.5733147         9.21840183E-06
   62.7001076         8.60747241E-06
   62.8268967         7.88388843E-06
   62.9536896         7.06584751E-06
   63.0804825         6.17395244E-06
   63.2072754         5.23070139E-06
   63.3340683         4.25979579E-06
   63.4608612         3.28548663E-06
   63.5876541         2.33188143E-06
   63.7144470         1.42219801E-06
   63.8412399         5.78103425E-07
   63.9680328        -1.80962928E-07
   64.0948257        -8.38361075E-07
   64.2216187        -1.38076211E-06
   64.3484116        -1.79853612E-06
   64.4752045        -2.08604206E-06
   64.6019974        -2.24178689E-06
   64.7287903        -2.26843008E-06
   64.8555832        -2.17267166E-06
   64.9823761        -1.96500832E-06
   65.1091690        -1.65936024E-06
   65.2359619        -1.27258204E-06
   65.3627548        -8.23888683E-07
   65.4895477        -3.34203747E-07
   65.6163330         1.74543999E-07
   65.7431259         6.80155324E-07
   65.8699188         1.16088768E-06
   65.9967117         1.59615729E-06
   66.1235046         1.96719589E-06
   66.2502975         2.25762437E-06
   66.3770905         2.45393335E-06
   66.5038834         2.54585120E-06
   66.6306763         2.52659902E-06
   66.7574692         2.39298811E-06
   66.8842621         2.14541365E-06
   67.0110550         1.78770813E-06
   67.1378479         1.32687080E-06
   67.2646408         7.72711644E-07
   67.3914337         1.37364665E-07
   67.5182266        -5.65217135E-07
   67.6450195        -1.31984200E-06
   67.7718124        -2.11068482E-06
   67.8986053        -2.92184677E-06
   68.0253983        -3.73794637E-06
   68.1521912        -4.54459905E-06
   68.2789841        -5.32888816E-06
   68.4057770        -6.07966240E-06
   68.5325699        -6.78779406E-06
   68.6593628        -7.44635827E-06
   68.7861557        -8.05057425E-06
   68.9129486        -8.59782813E-06
   69.0397415        -9.08741185E-06
   69.1665344        -9.52029313E-06
   69.2933273        -9.89877208E-06
   69.4201126        -1.02261174E-05
   69.5469055        -1.05061672E-05
   69.6736984        -1.07428032E-05
   69.8004913        -1.09396915E-05
   69.9272842        -1.10998117E-05
   70.0540771        -1.12251582E-05
   70.1808701        -1.13165006E-05
   70.3076630        -1.13731849E-05
   70.4344559        -1.13930928E-05
   70.5612488        -1.13726046E-05
   70.6880417        -1.13067663E-05
   70.8148346        -1.11894115E-05
   70.9416275        -1.10135106E-05
   71.0684204        -1.07714541E-05
   71.1952133        -1.04554711E-05
   71.3220062        -1.00580546E-05
   71.4487991        -9.57237080E-06
   71.5755920        -8.99275074E-06
   71.7023849        -8.31502803E-06
   71.8291779        -7.53697304E-06
   71.9559708        -6.65858397E-06
   72.0827637        -5.68232235E-06
   72.2095566        -4.61328455E-06
   72.3363495        -3.45930107E-06
   72.4631424        -2.23089341E-06
   72.5899353        -9.41195367E-07
   72.7167282         3.94248303E-07
   72.8435211         1.75775938E-06
   72.9703140         3.12984275E-06
   73.0971069         4.48961600E-06
   73.2238922         5.81524228E-06
   73.3506851         7.08441667E-06
   73.4774780         8.27486565E-06
   73.6042709         9.36484412E-06
   73.7310638         1.03336133E-05
   73.8578568         1.11619311E-05
   73.9846497         1.18324624E-05
   74.1114426         1.23301870E-05
   74.2382355         1.26427140E-05
   74.3650284         1.27605672E-05
   74.4918213         1.26774157E-05
   74.6186142         1.23901991E-05
   74.7454071         1.18992384E-05
   74.8722000         1.12082544E-05
   74.9989929         1.03243437E-05
   75.1257858         9.25789300E-06
   75.2525787         8.02245086E-06
   75.3793716         6.63453875E-06
   75.5061646         5.11346343E-06
   75.6329575         3.48105436E-06
   75.7597504         1.76140964E-06
   75.8865433        -1.94494429E-08
   76.0133362        -1.83383679E-06
   76.1401291        -3.65281630E-06
   76.2669220        -5.44652084E-06
   76.3937149        -7.18452384E-06
   76.5205078        -8.83630310E-06
   76.6473007        -1.03715920E-05
   76.7740936        -1.17608006E-05
   76.9008865        -1.29754762E-05
   77.0276718        -1.39887788E-05
   77.1544647        -1.47757928E-05
   77.2812576        -1.53140936E-05
   77.4080505        -1.55841062E-05
   77.5348434        -1.55695652E-05
   77.6616364        -1.52577786E-05
   77.7884293        -1.46400989E-05
   77.9152222        -1.37121224E-05
   78.0420151        -1.24739545E-05
   78.1688080        -1.09303264E-05
   78.2956009        -9.09078062E-06
   78.4223938        -6.96948382E-06
   78.5491867        -4.58527802E-06
   78.6759796        -1.96143014E-06
   78.8027725         8.74743648E-07
   78.9295654         3.89204115E-06
   79.0563583         7.05612047E-06
   79.1831512         1.03298735E-05
   79.3099442         1.36740573E-05
   79.4367371         1.70479980E-05
   79.5635300         2.04103944E-05
   79.6903229         2.37198310E-05
   79.8171158         2.69357206E-05
   79.9439087         3.00188804E-05
   80.0707016         3.29322138E-05
   80.1974945         3.56414348E-05
   80.3242874         3.81154896E-05
   80.4510803         4.03270860E-05
   80.5778732         4.22530538E-05
   80.7046585         4.38746574E-05
   80.8314514         4.51776650E-05
   80.9582443         4.61525669E-05
   81.0850372         4.67944301E-05
   81.2118301         4.71028106E-05
   81.3386230         4.70816231E-05
   81.4654160         4.67387836E-05
   81.5922089         4.60859083E-05
   81.7190018         4.51379856E-05
   81.8457947         4.39128999E-05
   81.9725876         4.24310783E-05
   82.0993805         4.07150183E-05
   82.2261734         3.87888977E-05
   82.3529663         3.66781605E-05
   82.4797592         3.44091495E-05
   82.6065521         3.20087420E-05
   82.7333450         2.95040481E-05
   82.8601379         2.69220400E-05
   82.9869308         2.42893966E-05
   83.1137238         2.16321496E-05
   83.2405167         1.89755065E-05
   83.3673096         1.63436198E-05
   83.4941025         1.37593388E-05
   83.6208954         1.12440584E-05
   83.7476883         8.81753658E-06
   83.8744812         6.49763842E-06
   84.0012741         4.30008276E-06
   84.1280670         2.23846314E-06
   84.2548599         3.23859410E-07
   84.3816528        -1.43530872E-06
   84.5084381        -3.03342040E-06
   84.6352310        -4.46763534E-06
   84.7620239        -5.73822672E-06
   84.8888168        -6.84852102E-06
   85.0156097        -7.80481969E-06
   85.1424026        -8.61633089E-06
   85.2691956        -9.29512862E-06
   85.3959885        -9.85587576E-06
   85.5227814        -1.03154352E-05
   85.6495743        -1.06926200E-05
   85.7763672        -1.10077981E-05
   85.9031601        -1.12822354E-05
   86.0299530        -1.15377388E-05
   86.1567459        -1.17959553E-05
   86.2835388        -1.20778977E-05
   86.4103317        -1.24033195E-05
   86.5371246        -1.27901212E-05
   86.6639175        -1.32539099E-05
   86.7907104        -1.38075011E-05
   86.9175034        -1.44605865E-05
   87.0442963        -1.52194098E-05
   87.1710892        -1.60865930E-05
   87.2978821        -1.70610656E-05
   87.4246750        -1.81381947E-05
   87.5514679        -1.93098240E-05
   87.6782608        -2.05647466E-05
   87.8050537        -2.18889545E-05
   87.9318466        -2.32661332E-05
   88.0586395        -2.46783638E-05
   88.1854324        -2.61065998E-05
   88.3122177        -2.75315033E-05
   88.4390106        -2.89339205E-05
   88.5658035        -3.02957778E-05
   88.6925964        -3.16005680E-05
   88.8193893        -3.28339447E-05
   88.9461823        -3.39843391E-05
   89.0729752        -3.50431801E-05
   89.1997681        -3.60052945E-05
   89.3265610        -3.68690417E-05
   89.4533539        -3.76363496E-05
   89.5801468        -3.83125625E-05
   89.7069397        -3.89061643E-05
   89.8337326        -3.94285198E-05
   89.9605255        -3.98932898E-05
   90.0873184        -4.03158920E-05
   90.2141113        -4.07129155E-05
   90.3409042        -4.11012916E-05
   90.4676971        -4.14976857E-05
   90.5944901        -4.19177813E-05
   90.7212830        -4.23755373E-05
   90.8480759        -4.28826206E-05
   90.9748688        -4.34478789E-05
   91.1016617        -4.40768345E-05
   91.2284546        -4.47714920E-05
   91.3552475        -4.55300324E-05
   91.4820404        -4.63469150E-05
   91.6088333        -4.72128813E-05
   91.7356262        -4.81152274E-05
   91.8624191        -4.90382117E-05
   91.9892120        -4.99635680E-05
   92.1159973        -5.08709963E-05
   92.2427902        -5.17389599E-05
   92.3695831        -5.25453252E-05
   92.4963760        -5.32681042E-05
   92.6231689        -5.38862696E-05
   92.7499619        -5.43802962E-05
   92.8767548        -5.47329764E-05
   93.0035477        -5.49298165E-05
   93.1303406        -5.49596080E-05
   93.2571335        -5.48146672E-05
   93.3839264        -5.44910363E-05
   93.5107193        -5.39885114E-05
   93.6375122        -5.33106540E-05
   93.7643051        -5.24645147E-05
   93.8910980        -5.14602361E-05
   94.0178909        -5.03107258E-05
   94.1446838        -4.90311104E-05
   94.2714767        -4.76380847E-05
   94.3982697        -4.61493946E-05
   94.5250626        -4.45831392E-05
   94.6518555        -4.29572137E-05
   94.7786484        -4.12887493E-05
   94.9054413        -3.95936004E-05
   95.0322342        -3.78858931E-05
   95.1590271        -3.61777566E-05
   95.2858200        -3.44789951E-05
   95.4126129        -3.27971102E-05
   95.5394058        -3.11371368E-05
   95.6661987        -2.95017544E-05
   95.7929916        -2.78915031E-05
   95.9197769        -2.63048514E-05
   96.0465698        -2.47386797E-05
   96.1733627        -2.31884460E-05
   96.3001556        -2.16484950E-05
   96.4269485        -2.01125240E-05
   96.5537415        -1.85737426E-05
   96.6805344        -1.70252351E-05
   96.8073273        -1.54602385E-05
   96.9341202        -1.38721853E-05
   97.0609131        -1.22550273E-05
   97.1877060        -1.06032094E-05
   97.3144989        -8.91175750E-06
   97.4412918        -7.17628791E-06
   97.5680847        -5.39300027E-06
   97.6948776        -3.55862926E-06
   97.8216705        -1.67047074E-06
   97.9484634         2.73729114E-07
   98.0752563         2.27567648E-06