  -4.50000000         0.00000000    
  -4.37320757         0.00000000    
  -4.24641466         0.00000000    
  -4.11962223         0.00000000    
  -3.99282932         0.00000000    
  -3.86603665         0.00000000    
  -3.73924398         4.14197594E-33
  -3.61245155        -8.09768451E-33
  -3.48565888        -3.07438534E-31
  -3.35886621        -1.88176634E-30
  -3.23207355        -5.54774879E-30
  -3.10528088         2.43897060E-29
  -2.97848821         1.52841211E-28
  -2.85169554         4.98726781E-28
  -2.72490287         1.13633025E-27
  -2.59811020         1.89086916E-27
  -2.47131753         2.06158590E-27
  -2.34452486         5.70946795E-28
  -2.21773219        -2.44160038E-27
  -2.09093952        -1.22593048E-27
  -1.96414697         2.35214702E-26
  -1.83735430         1.14505564E-25
  -1.71056163         3.43535489E-25
  -1.58376896         8.01928978E-25
  -1.45697629         1.56224219E-24
  -1.33018374         2.60400697E-24
  -1.20339108         3.71544375E-24
  -1.07659841         4.41592423E-24
 -0.949805737         3.98121454E-24
 -0.823013067         1.67451623E-24
 -0.696220458        -2.73807664E-24
 -0.569427788        -8.20519629E-24
 -0.442635119        -1.15317478E-23
 -0.315842479        -6.85242448E-24
 -0.189049825         1.39766873E-23
  -6.22571707E-02     5.94677303E-23
   6.45354837E-02     1.34748600E-22
  0.191328138         2.36294790E-22
  0.318120778         3.46442971E-22
  0.444913447         4.30050413E-22
  0.571706116         4.36400579E-22
  0.698498726         3.09305495E-22
  0.825291395         6.81478556E-24
  0.952084064        -4.71232941E-22
   1.07887673        -1.05404631E-21
   1.20566940        -1.58003473E-21
   1.33246195        -1.80036062E-21
   1.45925462        -1.41941739E-21
   1.58604729        -1.79640453E-22
   1.71283996         2.01428819E-21
   1.83963263         4.95393299E-21
   1.96642530         8.00847592E-21
   2.09321785         1.00818066E-20
   2.22001052         9.69842288E-21
   2.34680319         5.25306824E-21
   2.47359586        -4.57902347E-21
   2.60038853        -2.03276210E-20
   2.72718120        -4.12205942E-20
   2.85397387        -6.48365231E-20
   2.98076653        -8.70735226E-20
   3.10755920        -1.02548818E-19
   3.23435187        -1.05452280E-19
   3.36114454        -9.07592585E-20
   3.48793697        -5.55903176E-20
   3.61472964        -4.35462024E-22
   3.74152231         7.00390756E-20
   3.86831498         1.46798102E-19
   3.99510765         2.16921602E-19
   4.12190056         2.64691437E-19
   4.24869299         2.73143026E-19
   4.37548542         2.25984347E-19
   4.50227833         1.09921783E-19
   4.62907076        -8.24251424E-20
   4.75586367        -3.48827260E-19
   4.88265610        -6.73035402E-19
   5.00944901        -1.02031839E-18
   5.13624144        -1.33444426E-18
   5.26303434        -1.53838244E-18
   5.38982677        -1.54130011E-18
   5.51661968        -1.25379219E-18
   5.64341211        -6.11451754E-19
   5.77020502         3.96018664E-19
   5.89699745         1.69631800E-18
   6.02379036         3.11557909E-18
   6.15058279         4.37865534E-18
   6.27737522         5.13629943E-18
   6.40416813         5.02149752E-18
   6.53096056         3.72931774E-18
   6.65775347         1.10594069E-18
   6.78454590        -2.77421137E-18
   6.91133881        -7.56656269E-18
   7.03813124        -1.26689494E-17
   7.16492414        -1.72971126E-17
   7.29171658        -2.06161351E-17
   7.41850948        -2.19042786E-17
   7.54530191        -2.07124718E-17
   7.67209482        -1.69777299E-17
   7.79888725        -1.10542126E-17
   7.92567968        -3.64234424E-18
   8.05247211         4.37914090E-18
   8.17926502         1.21853457E-17
   8.30605793         1.92446299E-17
   8.43285084         2.54944443E-17
   8.55964279         3.13831133E-17
   8.68643570         3.77264769E-17
   8.81322861         4.53636701E-17
   8.94002151         5.46465093E-17
   9.06681347         6.48542158E-17
   9.19360638         7.36784661E-17
   9.32039928         7.69642657E-17
   9.44719219         6.88994003E-17
   9.57398415         4.28114903E-17
   9.70077705        -7.35918851E-18
   9.82756996        -8.49854427E-17
   9.95436192        -1.88341362E-16
   10.0811548        -3.08312502E-16
   10.2079477        -4.26854525E-16
   10.3347406        -5.16899844E-16
   10.4615326        -5.44341488E-16
   10.5883255        -4.72471166E-16
   10.7151184        -2.68820544E-16
   10.8419113         8.62200329E-17
   10.9687033         5.90235322E-16
   11.0954962         1.21082333E-15
   11.2222891         1.88087541E-15
   11.3490820         2.49904577E-15
   11.4758739         2.93684386E-15
   11.6026669         3.05282956E-15
   11.7294598         2.71310921E-15
   11.8562517         1.81596283E-15
   11.9830446         3.17150999E-16
   12.1098375        -1.74833201E-15
   12.2366304        -4.25248571E-15
   12.3634224        -6.97228479E-15
   12.4902153        -9.60176305E-15
   12.6170082        -1.17784937E-14
   12.7438011        -1.31223962E-14
   12.8705931        -1.32825396E-14
   12.9973860        -1.19858271E-14
   13.1241789        -9.08070650E-15
   13.2509708        -4.56926248E-15
   13.3777637         1.37730755E-15
   13.5045567         8.42249837E-15
   13.6313496         1.60870158E-14
   13.7581415         2.37864470E-14
   13.8849344         3.08781422E-14
   14.0117273         3.67099810E-14
   14.1385202         4.06640189E-14
   14.2653122         4.21901961E-14
   14.3921051         4.08279672E-14
   14.5188980         3.62182784E-14
   14.6456909         2.81113633E-14
   14.7724829         1.63788118E-14
   14.8992758         1.03822417E-15
   15.0260687        -1.77030445E-14
   15.1528606        -3.93841725E-14
   15.2796535        -6.32129304E-14
   15.4064465        -8.79872279E-14
   15.5332394        -1.12037793E-13
   15.6600313        -1.33216829E-13
   15.7868242        -1.48958916E-13
   15.9136171        -1.56434070E-13
   16.0404091        -1.52801843E-13
   16.1672020        -1.35559126E-13
   16.2939949        -1.02955384E-13
   16.4207878        -5.44292191E-14
   16.5475807         8.99428203E-15
   16.6743736         8.44148698E-14
   16.8011646         1.66945830E-13
   16.9279575         2.49835119E-13
   17.0547504         3.24850417E-13
   17.1815434         3.82928932E-13
   17.3083363         4.15053598E-13
   17.4351292         4.13282960E-13
   17.5619221         3.71831038E-13
   17.6887150         2.88073737E-13
   17.8155060         1.63355955E-13
   17.9422989         3.48470604E-15
   18.0690918        -1.81180876E-13
   18.1958847        -3.76086640E-13
   18.3226776        -5.63295341E-13
   18.4494705        -7.22705424E-13
   18.5762634        -8.33598707E-13
   18.7030544        -8.76402033E-13
   18.8298473        -8.34540878E-13
   18.9566402        -6.96249265E-13
   19.0834332        -4.56226691E-13
   19.2102261        -1.17023755E-13
   19.3370190         3.09923230E-13
   19.4638119         8.03699284E-13
   19.5906048         1.33382433E-12
   19.7173958         1.86076046E-12
   19.8441887         2.33708430E-12
   19.9709816         2.70940822E-12
   20.0977745         2.92111843E-12
   20.2245674         2.91595480E-12
   20.3513603         2.64240864E-12
   20.4781532         2.05882295E-12
   20.6049442         1.13895883E-12
   20.7317371        -1.22320204E-13
   20.8585300        -1.70373199E-12
   20.9853230        -3.55319463E-12
   21.1121159        -5.58502550E-12
   21.2389088        -7.67933460E-12
   21.3657017        -9.68419615E-12
   21.4924946        -1.14209094E-11
   21.6192856        -1.26926187E-11
   21.7460785        -1.32960431E-11
   21.8728714        -1.30359829E-11
   21.9996643        -1.17417924E-11
   22.1264572        -9.28479602E-12
   22.2532501        -5.59546333E-12
   22.3800430        -6.78976190E-13
   22.5068340         5.37215585E-12
   22.6336269         1.23696626E-11
   22.7604198         2.00263937E-11
   22.8872128         2.79592478E-11
   23.0140057         3.56986732E-11
   23.1407986         4.27048952E-11
   23.2675915         4.83906179E-11
   23.3943844         5.21497186E-11
   23.5211754         5.33908022E-11
   23.6479683         5.15748243E-11
   23.7747612         4.62545800E-11
   23.9015541         3.71147973E-11
   24.0283470         2.40105158E-11
   24.1551399         7.00143069E-12
   24.2819328        -1.36200651E-11
   24.4087238        -3.73096519E-11
   24.5355167        -6.32627353E-11
   24.6623096        -9.04192624E-11
   24.7891026        -1.17482898E-10
   24.9158955        -1.42955869E-10
   25.0426884        -1.65189265E-10
   25.1694813        -1.82448140E-10
   25.2962742        -1.92990304E-10
   25.4230652        -1.95155545E-10
   25.5498581        -1.87462490E-10
   25.6766510        -1.68708714E-10
   25.8034439        -1.38070097E-10
   25.9302368        -9.51933116E-11
   26.0570297        -4.02780136E-11
   26.1838226         2.58579391E-11
   26.3106136         1.01733504E-10
   26.4374065         1.85184978E-10
   26.5641994         2.73375211E-10
   26.6909924         3.62834540E-10
   26.8177853         4.49535742E-10
   26.9445782         5.29002009E-10
   27.0713711         5.96452332E-10
   27.1981640         6.46974863E-10
   27.3249550         6.75733358E-10
   27.4517479         6.78193890E-10
   27.5785408         6.50369647E-10
   27.7053337         5.89073401E-10
   27.8321266         4.92166530E-10
   27.9589195         3.58793661E-10
   28.0857124         1.89588872E-10
   28.2125034        -1.31573242E-11
   28.3392963        -2.45386517E-10
   28.4660892        -5.01226005E-10
   28.5928822        -7.73017650E-10
   28.7196751        -1.05143172E-09
   28.8464680        -1.32566624E-09
   28.9732609        -1.58374114E-09
   29.1000538        -1.81286874E-09
   29.2268448        -1.99991068E-09
   29.3536377        -2.13189200E-09
   29.4804306        -2.19656981E-09
   29.6072235        -2.18302065E-09
   29.7340164        -2.08224948E-09
   29.8608093        -1.88774840E-09
   29.9876022        -1.59602720E-09
   30.1143932        -1.20705868E-09
   30.2411861        -7.24616145E-10
   30.3679790        -1.56484908E-10
   30.4947720         4.85473772E-10
   30.6215649         1.18541976E-09
   30.7483578         1.92380423E-09
   30.8751507         2.67780464E-09
   31.0019417         3.42191964E-09
   31.1287346         4.12871826E-09
   31.2555275         4.76970596E-09
   31.3823204         5.31627631E-09
   31.5091133         5.74074921E-09
   31.6359062         6.01739236E-09
   31.7626991         6.12345419E-09
   31.8894920         6.04012218E-09
   32.0162849         5.75339687E-09
   32.1430779         5.25481347E-09
   32.2698708         4.54203430E-09
   32.3966637         3.61923203E-09
   32.5234528         2.49729526E-09
   32.6502457         1.19382149E-09
   32.7770386        -2.67089156E-10
   32.9038315        -1.85523685E-09
   33.0306244        -3.53490148E-09
   33.1574173        -5.26558797E-09
   33.2842102        -7.00291913E-09
   33.4110031        -8.69963124E-09
   33.5377960        -1.03066569E-08
   33.6645889        -1.17742900E-08
   33.7913818        -1.30533788E-08
   33.9181747        -1.40965435E-08
   34.0449677        -1.48593839E-08
   34.1717606        -1.53016728E-08
   34.2985535        -1.53885207E-08
   34.4253426        -1.50914570E-08
   34.5521355        -1.43894558E-08
   34.6789284        -1.32698652E-08
   34.8057213        -1.17292229E-08
   34.9325142        -9.77390968E-09
   35.0593071        -7.42066408E-09
   35.1861000        -4.69688066E-09
   35.3128929        -1.64069036E-09
   35.4396858         1.69920655E-09
   35.5664787         5.26399768E-09
   35.6932716         8.98548436E-09
   35.8200645         1.27871713E-08
   35.9468575         1.65855774E-08
   36.0736504         2.02919690E-08
   36.2004433         2.38142857E-08
   36.3272324         2.70593166E-08
   36.4540253         2.99351832E-08
   36.5808182         3.23538103E-08
   36.7076111         3.42336115E-08
   36.8344040         3.55020902E-08
   36.9611969         3.60983670E-08
   37.0879898         3.59755248E-08
   37.2147827         3.51026692E-08
   37.3415756         3.34666659E-08
   37.4683685         3.10733874E-08
   37.5951614         2.79484773E-08
   37.7219543         2.41375329E-08
   37.8487473         1.97056735E-08
   37.9755402         1.47365089E-08
   38.1023293         9.33043420E-09
   38.2291222         3.60233643E-09
   38.3559151        -2.32129516E-09
   38.4827080        -8.30572500E-09
   38.6095009        -1.42118113E-08
   38.7362938        -1.99001420E-08
   38.8630867        -2.52353640E-08
   38.9898796        -3.00905967E-08
   39.1166725        -3.43518565E-08
   39.2434654        -3.79222058E-08
   39.3702583        -4.07255953E-08
   39.4970512        -4.27101945E-08
   39.6238441        -4.38512302E-08
   39.7506371        -4.41529338E-08
   39.8774300        -4.36498127E-08
   40.0042191        -4.24069135E-08
   40.1310120        -4.05191294E-08
   40.2578049        -3.81095013E-08
   40.3845978        -3.53264866E-08
   40.5113907        -3.23401359E-08
   40.6381836        -2.93372704E-08
   40.7649765        -2.65159379E-08
   40.8917694        -2.40786218E-08
   41.0185623        -2.22251870E-08
   41.1453552        -2.11448548E-08
   41.2721481        -2.10080096E-08
   41.3989410        -2.19577228E-08
   41.5257339        -2.41011904E-08
   41.6525269        -2.75013896E-08
   41.7793198        -3.21693356E-08
   41.9061089        -3.80567897E-08
   42.0329018        -4.50500721E-08
   42.1596947        -5.29649569E-08
   42.2864876        -6.15430693E-08
   42.4132805        -7.04498291E-08
   42.5400734        -7.92743791E-08
   42.6668663        -8.75313830E-08
   42.7936592        -9.46652037E-08
   42.9204521        -1.00056063E-07
   43.0472450        -1.03028761E-07
   43.1740379        -1.02863432E-07
   43.3008308        -9.88086626E-08
   43.4276237        -9.00966342E-08
   43.5544167        -7.59597825E-08
   43.6812096        -5.56492523E-08
   43.8079987        -2.84541368E-08
   43.9347916         6.27848529E-09
   44.0615845         4.91233259E-08
   44.1883774         1.00557330E-07
   44.3151703         1.60940814E-07
   44.4419632         2.30500376E-07
   44.5687561         3.09313577E-07
   44.6955490         3.97296645E-07
   44.8223419         4.94195262E-07
   44.9491348         5.99578073E-07
   45.0759277         7.12834776E-07
   45.2027206         8.33178319E-07
   45.3295135         9.59649356E-07
   45.4563065         1.09112739E-06
   45.5830994         1.22634276E-06
   45.7098885         1.36389372E-06
   45.8366814         1.50226674E-06
   45.9634743         1.63985726E-06
   46.0902672         1.77499430E-06
   46.2170601         1.90596620E-06
   46.3438530         2.03104355E-06
   46.4706459         2.14850797E-06
   46.5974388         2.25667532E-06
   46.7242317         2.35391872E-06
   46.8510246         2.43869340E-06
   46.9778175         2.50955259E-06
   47.1046104         2.56517046E-06
   47.2314034         2.60435741E-06
   47.3581963         2.62607182E-06
   47.4849892         2.62943377E-06
   47.6117783         2.61373566E-06
   47.7385712         2.57845136E-06
   47.8653641         2.52324207E-06
   47.9921570         2.44796706E-06
   48.1189499         2.35268271E-06
   48.2457428         2.23764914E-06
   48.3725357         2.10333815E-06
   48.4993286         1.95042708E-06
   48.6261215         1.77980462E-06
   48.7529144         1.59256751E-06
   48.8797073         1.39001725E-06
   49.0065002         1.17364868E-06
   49.1332932         9.45145018E-07
   49.2600861         7.06358890E-07
   49.3868790         4.59289737E-07
   49.5136681         2.06065266E-07
   49.6404610        -5.10979561E-08
   49.7672539        -3.09924928E-07
   49.8940468        -5.68131099E-07
   50.0208397        -8.23468270E-07
   50.1476326        -1.07377468E-06
   50.2744255        -1.31704076E-06
   50.4012184        -1.55145676E-06
   50.5280113        -1.77548452E-06
   50.6548042        -1.98790985E-06
   50.7815971        -2.18790706E-06
   50.9083900        -2.37508630E-06
   51.0351830        -2.54954102E-06
   51.1619759        -2.71188969E-06
   51.2887688        -2.86329600E-06
   51.4155579        -3.00548390E-06
   51.5423508        -3.14073941E-06
   51.6691437        -3.27188241E-06
   51.7959366        -3.40225165E-06
   51.9227295        -3.53562768E-06
   52.0495224        -3.67618077E-06
   52.1763153        -3.82837015E-06
   52.3031082        -3.99684450E-06
   52.4299011        -4.18632817E-06
   52.5566940        -4.40147642E-06
   52.6834869        -4.64674758E-06
   52.8102798        -4.92624167E-06
   52.9370728        -5.24356165E-06
   53.0638657        -5.60165654E-06
   53.1906586        -6.00268686E-06
   53.3174477        -6.44787906E-06
   53.4442406        -6.93742504E-06
   53.5710335        -7.47036847E-06
   53.6978264        -8.04454339E-06
   53.8246193        -8.65651873E-06
   53.9514122        -9.30158694E-06
   54.0782051        -9.97377811E-06
   54.2049980        -1.06659099E-05
   54.3317909        -1.13696742E-05
   54.4585838        -1.20757613E-05
   54.5853767        -1.27740077E-05
   54.7121696        -1.34535894E-05
   54.8389626        -1.41032415E-05
   54.9657555        -1.47114788E-05
   55.0925484        -1.52668763E-05
   55.2193375        -1.57583236E-05
   55.3461304        -1.61753233E-05
   55.4729233        -1.65082420E-05
   55.5997162        -1.67486214E-05
   55.7265091        -1.68894003E-05
   55.8533020        -1.69251798E-05
   55.9800949        -1.68524202E-05
   56.1068878        -1.66696263E-05
   56.2336807        -1.63774839E-05
   56.3604736        -1.59789561E-05
   56.4872665        -1.54793343E-05
   56.6140594        -1.48862391E-05
   56.7408524        -1.42095687E-05
   56.8676453        -1.34613947E-05
   56.9944382        -1.26558189E-05
   57.1212273        -1.18087682E-05
   57.2480202        -1.09377615E-05
   57.3748131        -1.00616144E-05
   57.5016060        -9.20012553E-06
   57.6283989        -8.37373500E-06
   57.7551918        -7.60314515E-06
   57.8819847        -6.90894058E-06
   58.0087776        -6.31119065E-06
   58.1355705        -5.82905250E-06
   58.2623634        -5.48038315E-06
   58.3891563        -5.28136025E-06
   58.5159492        -5.24612960E-06
   58.6427422        -5.38646873E-06
   58.7695351        -5.71149621E-06
   58.8963280        -6.22742118E-06
   59.0231171        -6.93732545E-06
   59.1499100        -7.84099666E-06
   59.2767029        -8.93484230E-06
   59.4034958        -1.02118120E-05
   59.5302887        -1.16614274E-05
   59.6570816        -1.32698551E-05
   59.7838745        -1.50200212E-05
   59.9106674        -1.68918268E-05
   60.0374603        -1.88623999E-05
   60.1642532        -2.09064019E-05
   60.2910461        -2.29964280E-05
   60.4178391        -2.51033744E-05
   60.5446320        -2.71969675E-05
   60.6714249        -2.92462319E-05
   60.7982178        -3.12200209E-05
   60.9250069        -3.30875955E-05
   61.0517998        -3.48191716E-05
   61.1785927        -3.63864820E-05
   61.3053856        -3.77633405E-05
   61.4321785        -3.89261659E-05
   61.5589714        -3.98544398E-05
   61.6857643        -4.05312167E-05
   61.8125572        -4.09434251E-05
   61.9393501        -4.10822540E-05
   62.0661430        -4.09433123E-05
   62.1929359        -4.05268438E-05
   62.3197289        -3.98377233E-05
   62.4465218        -3.88854605E-05
   62.5733147        -3.76839998E-05
   62.7001076        -3.62515711E-05
   62.8268967        -3.46102788E-05
   62.9536896        -3.27857451E-05
   63.0804825        -3.08066083E-05
   63.2072754        -2.87039838E-05
   63.3340683        -2.65108538E-05
   63.4608612        -2.42614715E-05
   63.5876541        -2.19906779E-05
   63.7144470        -1.97332720E-05
   63.8412399        -1.75233799E-05
   63.9680328        -1.53938581E-05
   64.0948257        -1.33757312E-05
   64.2216187        -1.14977029E-05
   64.3484116        -9.78574917E-06
   64.4752045        -8.26277028E-06
   64.6019974        -6.94833125E-06
   64.7287903        -5.85851421E-06
   64.8555832        -5.00583292E-06
   64.9823761        -4.39924588E-06
   65.1091690        -4.04424327E-06
   65.2359619        -3.94300196E-06
   65.3627548        -4.09459835E-06
   65.4895477        -4.49527261E-06
   65.6163330        -5.13870464E-06
   65.7431259        -6.01632792E-06
   65.8699188        -7.11762596E-06
   65.9967117        -8.43042744E-06
   66.1235046        -9.94118182E-06
   66.2502975        -1.16351721E-05
   66.3770905        -1.34967358E-05
   66.5038834        -1.55093858E-05
   66.6306763        -1.76559297E-05
   66.7574692        -1.99185106E-05
   66.8842621        -2.22786130E-05
   67.0110550        -2.47170647E-05
   67.1378479        -2.72139514E-05
   67.2646408        -2.97485949E-05
   67.3914337        -3.22994529E-05
   67.5182266        -3.48440881E-05
   67.6450195        -3.73591611E-05
   67.7718124        -3.98203956E-05
   67.8986053        -4.22026933E-05
   68.0253983        -4.44802208E-05
   68.1521912        -4.66266174E-05
   68.2789841        -4.86152348E-05
   68.4057770        -5.04194722E-05
   68.5325699        -5.20131362E-05
   68.6593628        -5.33709353E-05
   68.7861557        -5.44689065E-05
   68.9129486        -5.52850033E-05
   69.0397415        -5.57995518E-05
   69.1665344        -5.59958717E-05
   69.2933273        -5.58607571E-05
   69.4201126        -5.53849786E-05
   69.5469055        -5.45636613E-05
   69.6736984        -5.33966449E-05
   69.8004913        -5.18887755E-05
   69.9272842        -5.00499482E-05
   70.0540771        -4.78952788E-05
   70.1808701        -4.54448455E-05
   70.3076630        -4.27235682E-05
   70.4344559        -3.97608273E-05
   70.5612488        -3.65900123E-05
   70.6880417        -3.32479030E-05
   70.8148346        -2.97740917E-05
   70.9416275        -2.62101330E-05
   71.0684204        -2.25988497E-05
   71.1952133        -1.89834664E-05
   71.3220062        -1.54067675E-05
   71.4487991        -1.19103315E-05
   71.5755920        -8.53372148E-06
   71.7023849        -5.31381693E-06
   71.8291779        -2.28417616E-06
   71.9559708         5.25469147E-07
   72.0827637         3.08960443E-06
   72.2095566         5.38719678E-06
   72.3363495         7.40185305E-06
   72.4631424         9.12178803E-06
   72.5899353         1.05397230E-05
   72.7167282         1.16526217E-05
   72.8435211         1.24613352E-05
   72.9703140         1.29701521E-05
   73.0971069         1.31862662E-05
   73.2238922         1.31192146E-05
   73.3506851         1.27802396E-05
   73.4774780         1.21817075E-05
   73.6042709         1.13364995E-05
   73.7310638         1.02574468E-05
   73.8578568         8.95684479E-06
   73.9846497         7.44603494E-06
   74.1114426         5.73507350E-06
   74.2382355         3.83251063E-06
   74.3650284         1.74527167E-06
   74.4918213        -5.21348625E-07
   74.6186142        -2.96357598E-06
   74.7454071        -5.57895510E-06
   74.8722000        -8.36606068E-06
   74.9989929        -1.13241058E-05
   75.1257858        -1.44525266E-05
   75.2525787        -1.77504899E-05
   75.3793716        -2.12163886E-05
   75.5061646        -2.48473698E-05
   75.6329575        -2.86388204E-05
   75.7597504        -3.25839428E-05
   75.8865433        -3.66733693E-05
   76.0133362        -4.08948617E-05
   76.1401291        -4.52330642E-05
   76.2669220        -4.96693938E-05
   76.3937149        -5.41820154E-05
   76.5205078        -5.87458962E-05
   76.6473007        -6.33330419E-05
   76.7740936        -6.79127334E-05
   76.9008865        -7.24518977E-05
   77.0276718        -7.69155813E-05
   77.1544647        -8.12674625E-05
   77.2812576        -8.54704122E-05
   77.4080505        -8.94870755E-05
   77.5348434        -9.32805342E-05
   77.6616364        -9.68148815E-05
   77.7884293        -1.00055782E-04
   77.9152222        -1.02971047E-04
   78.0420151        -1.05531137E-04
   78.1688080        -1.07709631E-04
   78.2956009        -1.09483444E-04
   78.4223938        -1.10833251E-04
   78.5491867        -1.11743590E-04
   78.6759796        -1.12202892E-04
   78.8027725        -1.12203648E-04
   78.9295654        -1.11742076E-04
   79.0563583        -1.10818197E-04
   79.1831512        -1.09435437E-04
   79.3099442        -1.07600295E-04
   79.4367371        -1.05322091E-04
   79.5635300        -1.02612517E-04
   79.6903229        -9.94851944E-05
   79.8171158        -9.59552708E-05
   79.9439087        -9.20390448E-05
   80.0707016        -8.77534403E-05
   80.1974945        -8.31158031E-05
   80.3242874        -7.81434719E-05
   80.4510803        -7.28535160E-05
   80.5778732        -6.72625756E-05
   80.7046585        -6.13867014E-05
   80.8314514        -5.52412712E-05
   80.9582443        -4.88410005E-05
   81.0850372        -4.22000448E-05
   81.2118301        -3.53320465E-05
   81.3386230        -2.82504479E-05
   81.4654160        -2.09686186E-05
   81.5922089        -1.35001701E-05
   81.7190018        -5.85926500E-06
   81.8457947         1.93911251E-06
   81.9725876         9.87884050E-06
   82.0993805         1.79423769E-05
   82.2261734         2.61105142E-05
   82.3529663         3.43621723E-05
   82.4797592         4.26742954E-05
   82.6065521         5.10216632E-05
   82.7333450         5.93769728E-05
   82.8601379         6.77109128E-05
   82.9869308         7.59922550E-05
   83.1137238         8.41881265E-05
   83.2405167         9.22642721E-05
   83.3673096         1.00185476E-04
   83.4941025         1.07915985E-04
   83.6208954         1.15420007E-04
   83.7476883         1.22662153E-04
   83.8744812         1.29608132E-04
   84.0012741         1.36225237E-04
   84.1280670         1.42482793E-04
   84.2548599         1.48352847E-04
   84.3816528         1.53810557E-04
   84.5084381         1.58834664E-04
   84.6352310         1.63407851E-04
   84.7620239         1.67517021E-04
   84.8888168         1.71153457E-04
   85.0156097         1.74312983E-04
   85.1424026         1.76996080E-04
   85.2691956         1.79207462E-04
   85.3959885         1.80956282E-04
   85.5227814         1.82255608E-04
   85.6495743         1.83122218E-04
   85.7763672         1.83576136E-04
   85.9031601         1.83640121E-04
   86.0299530         1.83339245E-04
   86.1567459         1.82700387E-04
   86.2835388         1.81751413E-04
   86.4103317         1.80521223E-04
   86.5371246         1.79038674E-04
   86.6639175         1.77332477E-04
   86.7907104         1.75430672E-04
   86.9175034         1.73360371E-04
   87.0442963         1.71147462E-04
   87.1710892         1.68816419E-04
   87.2978821         1.66390251E-04
   87.4246750         1.63890494E-04
   87.5514679         1.61337201E-04
   87.6782608         1.58749084E-04
   87.8050537         1.56143680E-04
   87.9318466         1.53537694E-04
   88.0586395         1.50947017E-04
   88.1854324         1.48387073E-04
   88.3122177         1.45873040E-04
   88.4390106         1.43420155E-04
   88.5658035         1.41043696E-04
   88.6925964         1.38759206E-04
   88.8193893         1.36582501E-04
   88.9461823         1.34529691E-04
   89.0729752         1.32617060E-04
   89.1997681         1.30860804E-04
   89.3265610         1.29276916E-04
   89.4533539         1.27880718E-04
   89.5801468         1.26686631E-04
   89.7069397         1.25707607E-04
   89.8337326         1.24954764E-04
   89.9605255         1.24436905E-04
   90.0873184         1.24160084E-04
   90.2141113         1.24127095E-04
   90.3409042         1.24337166E-04
   90.4676971         1.24785656E-04
   90.5944901         1.25463761E-04
   90.7212830         1.26358384E-04
   90.8480759         1.27452149E-04
   90.9748688         1.28723448E-04
   91.1016617         1.30146582E-04
   91.2284546         1.31692257E-04
   91.3552475         1.33327732E-04
   91.4820404         1.35017646E-04
   91.6088333         1.36724368E-04
   91.7356262         1.38408956E-04
   91.8624191         1.40031741E-04
   91.9892120         1.41553188E-04
   92.1159973         1.42934732E-04
   92.2427902         1.44139543E-04
   92.3695831         1.45133396E-04
   92.4963760         1.45885322E-04
   92.6231689         1.46368373E-04
   92.7499619         1.46560022E-04
   92.8767548         1.46442864E-04
   93.0035477         1.46004764E-04
   93.1303406         1.45239232E-04
   93.2571335         1.44145408E-04
   93.3839264         1.42728037E-04
   93.5107193         1.40997319E-04
   93.6375122         1.38968579E-04
   93.7643051         1.36661867E-04
   93.8910980         1.34101399E-04
   94.0178909         1.31314970E-04
   94.1446838         1.28333239E-04
   94.2714767         1.25189050E-04
   94.3982697         1.21916608E-04
   94.5250626         1.18550779E-04
   94.6518555         1.15126197E-04
   94.7786484         1.11676643E-04
   94.9054413         1.08234257E-04
   95.0322342         1.04828963E-04
   95.1590271         1.01487822E-04
   95.2858200         9.82345809E-05
   95.4126129         9.50892208E-05
   95.5394058         9.20676757E-05
   95.6661987         8.91815434E-05
   95.7929916         8.64379472E-05
   95.9197769         8.38394844E-05
   96.0465698         8.13842998E-05
   96.1733627         7.90660706E-05
   96.3001556         7.68742320E-05
   96.4269485         7.47942468E-05
   96.5537415         7.28078812E-05
   96.6805344         7.08935040E-05
   96.8073273         6.90265151E-05
   96.9341202         6.71797825E-05
   97.0609131         6.53240859E-05
   97.1877060         6.34286189E-05
   97.3144989         6.14614983E-05
   97.4412918         5.93903351E-05
   97.5680847         5.71827550E-05
   97.6948776         5.48070020E-05
   97.8216705         5.22325281E-05
   97.9484634         4.94305605E-05
   98.0752563         4.63747492E-05