  -4.50000000         0.00000000    
  -4.37320757         0.00000000    
  -4.24641466         0.00000000    
  -4.11962223         0.00000000    
  -3.99282932         0.00000000    
  -3.86603665         0.00000000    
  -3.73924398         1.56340866E-32
  -3.61245155         1.73051294E-31
  -3.48565888         3.44715905E-31
  -3.35886621        -5.34836341E-31
  -3.23207355        -8.07361719E-30
  -3.10528088        -4.85236214E-29
  -2.97848821        -1.89095734E-28
  -2.85169554        -4.46618724E-28
  -2.72490287        -5.99593077E-28
  -2.59811020         1.94931868E-28
  -2.47131753         3.60705994E-27
  -2.34452486         1.14060535E-26
  -2.21773219         2.27763680E-26
  -2.09093952         2.94536657E-26
  -1.96414697         1.11304892E-26
  -1.83735430        -6.19380179E-26
  -1.71056163        -2.08079320E-25
  -1.58376896        -3.85316225E-25
  -1.45697629        -4.17972133E-25
  -1.33018374         6.81071198E-26
  -1.20339108         1.62755080E-24
  -1.07659841         4.78836518E-24
 -0.949805737         9.56277700E-24
 -0.823013067         1.46841945E-23
 -0.696220458         1.67903569E-23
 -0.569427788         1.00652632E-23
 -0.442635119        -1.28869801E-23
 -0.315842479        -5.81310781E-23
 -0.189049825        -1.25078036E-22
  -6.22571707E-02    -1.99439789E-22
   6.45354837E-02    -2.46799691E-22
  0.191328138        -2.10978767E-22
  0.318120778        -2.25896016E-23
  0.444913447         3.77373159E-22
  0.571706116         9.97468040E-22
  0.698498726         1.74463640E-21
  0.825291395         2.37678555E-21
  0.952084064         2.48368148E-21
   1.07887673         1.52636098E-21
   1.20566940        -1.03835320E-21
   1.33246195        -5.53909340E-21
   1.45925462        -1.18003656E-20
   1.58604729        -1.88490018E-20
   1.71283996        -2.47266774E-20
   1.83963263        -2.65439464E-20
   1.96642530        -2.08995179E-20
   2.09321785        -4.72412299E-21
   2.22001052         2.35115992E-20
   2.34680319         6.24449824E-20
   2.47359586         1.06704858E-19
   2.60038853         1.46516382E-19
   2.72718120         1.68502235E-19
   2.85397387         1.57984957E-19
   2.98076653         1.02751245E-19
   3.10755920        -2.22958173E-21
   3.23435187        -1.50136551E-19
   3.36114454        -3.19053540E-19
   3.48793697        -4.71618009E-19
   3.61472964        -5.58718007E-19
   3.74152231        -5.27640573E-19
   3.86831498        -3.33978257E-19
   3.99510765         4.46267172E-20
   4.12190056         5.95846113E-19
   4.24869299         1.26457780E-18
   4.37548542         1.95253647E-18
   4.50227833         2.52746670E-18
   4.62907076         2.84200357E-18
   4.75586367         2.75997228E-18
   4.88265610         2.18587523E-18
   5.00944901         1.09204736E-18
   5.13624144        -4.62183652E-19
   5.26303434        -2.32392712E-18
   5.38982677        -4.25534422E-18
   5.51661968        -5.95759093E-18
   5.64341211        -7.10799609E-18
   5.77020502        -7.40669680E-18
   5.89699745        -6.62806383E-18
   6.02379036        -4.67176969E-18
   6.15058279        -1.60791710E-18
   6.27737522         2.29017278E-18
   6.40416813         6.53310391E-18
   6.53096056         1.04310089E-17
   6.65775347         1.31455684E-17
   6.78454590         1.37831327E-17
   6.91133881         1.15266469E-17
   7.03813124         5.79387989E-18
   7.16492414        -3.60206675E-18
   7.29171658        -1.63233539E-17
   7.41850948        -3.14455423E-17
   7.54530191        -4.74928429E-17
   7.67209482        -6.25822882E-17
   7.79888725        -7.46618118E-17
   7.92567968        -8.17981041E-17
   8.05247211        -8.24464615E-17
   8.17926502        -7.56275418E-17
   8.30605793        -6.09501417E-17
   8.43285084        -3.84580619E-17
   8.55964279        -8.33485300E-18
   8.68643570         2.94385110E-17
   8.81322861         7.53311796E-17
   8.94002151         1.30258778E-16
   9.06681347         1.95204368E-16
   9.19360638         2.70420536E-16
   9.32039928         3.54293500E-16
   9.44719219         4.42088465E-16
   9.57398415         5.24920029E-16
   9.70077705         5.89364254E-16
   9.82756996         6.18110964E-16
   9.95436192         5.91939764E-16
   10.0811548         4.93076355E-16
   10.2079477         3.09683822E-16
   10.3347406         4.09060665E-17
   10.4615326        -2.98424636E-16
   10.5883255        -6.74505677E-16
   10.7151184        -1.03383918E-15
   10.8419113        -1.30601300E-15
   10.9687033        -1.41054353E-15
   11.0954962        -1.26773346E-15
   11.2222891        -8.12771153E-16
   11.3490820        -1.15524789E-17
   11.4758739         1.12393691E-15
   11.6026669         2.52324296E-15
   11.7294598         4.05068392E-15
   11.8562517         5.50646632E-15
   11.9830446         6.63714816E-15
   12.1098375         7.15581396E-15
   12.2366304         6.77099884E-15
   12.3634224         5.22206400E-15
   12.4902153         2.31761746E-15
   12.6170082        -2.02718976E-15
   12.7438011        -7.75887008E-15
   12.8705931        -1.46633092E-14
   12.9973860        -2.23561472E-14
   13.1241789        -3.02876993E-14
   13.2509708        -3.77629277E-14
   13.3777637        -4.39755688E-14
   13.5045567        -4.80544729E-14
   13.6313496        -4.91196710E-14
   13.7581415        -4.63452552E-14
   13.8849344        -3.90265789E-14
   14.0117273        -2.66494709E-14
   14.1385202        -8.95912085E-15
   14.2653122         1.39730655E-14
   14.3921051         4.16881732E-14
   14.5188980         7.32877707E-14
   14.6456909         1.07397374E-13
   14.7724829         1.42153162E-13
   14.8992758         1.75221396E-13
   15.0260687         2.03860325E-13
   15.1528606         2.25033832E-13
   15.2796535         2.35583065E-13
   15.4064465         2.32456009E-13
   15.5332394         2.12990663E-13
   15.6600313         1.75234244E-13
   15.7868242         1.18276970E-13
   15.9136171         4.25660517E-14
   16.0404091        -4.98378126E-14
   16.1672020        -1.55103130E-13
   16.2939949        -2.67607876E-13
   16.4207878        -3.80090030E-13
   16.5475807        -4.83986549E-13
   16.6743736        -5.69963998E-13
   16.8011646        -6.28623672E-13
   16.9279575        -6.51343020E-13
   17.0547504        -6.31197297E-13
   17.1815434        -5.63887966E-13
   17.3083363        -4.48594585E-13
   17.4351292        -2.88660128E-13
   17.5619221        -9.20218695E-14
   17.6887150         1.28691572E-13
   17.8155060         3.56463909E-13
   17.9422989         5.70642275E-13
   18.0690918         7.48154522E-13
   18.1958847         8.65182546E-13
   18.3226776         8.99241619E-13
   18.4494705         8.31572550E-13
   18.5762634         6.49710049E-13
   18.7030544         3.50036894E-13
   18.8298473        -5.99046163E-14
   18.9566402        -5.59610409E-13
   19.0834332        -1.11460385E-12
   19.2102261        -1.67649195E-12
   19.3370190        -2.18432347E-12
   19.4638119        -2.56741395E-12
   19.5906048        -2.74970042E-12
   19.7173958        -2.65553812E-12
   19.8441887        -2.21672333E-12
   19.9709816        -1.38034538E-12
   20.0977745        -1.16934660E-13
   20.2245674         1.57175043E-12
   20.3513603         3.64602099E-12
   20.4781532         6.02341094E-12
   20.6049442         8.57640174E-12
   20.7317371         1.11333286E-11
   20.8585300         1.34829778E-11
   20.9853230         1.53830854E-11
   21.1121159         1.65728264E-11
   21.2389088         1.67889903E-11
   21.3657017         1.57853036E-11
   21.4924946         1.33541164E-11
   21.6192856         9.34924967E-12
   21.7460785         3.70863366E-12
   21.8728714        -3.52479612E-12
   21.9996643        -1.21859346E-11
   22.1264572        -2.19756643E-11
   22.2532501        -3.24563328E-11
   22.3800430        -4.30561281E-11
   22.5068340        -5.30835480E-11
   22.6336269        -6.17528945E-11
   22.7604198        -6.82208734E-11
   22.8872128        -7.16335394E-11
   23.0140057        -7.11822129E-11
   23.1407986        -6.61658645E-11
   23.2675915        -5.60565552E-11
   23.3943844        -4.05639480E-11
   23.5211754        -1.96943364E-11
   23.6479683         6.20097333E-12
   23.7747612         3.63926042E-11
   23.9015541         6.97598368E-11
   24.0283470         1.04801230E-10
   24.1551399         1.39671108E-10
   24.2819328         1.72243997E-10
   24.4087238         2.00205269E-10
   24.5355167         2.21166890E-10
   24.6623096         2.32803249E-10
   24.7891026         2.33001007E-10
   24.9158955         2.20016561E-10
   25.0426884         1.92630134E-10
   25.1694813         1.50288657E-10
   25.2962742         9.32259825E-11
   25.4230652         2.25518840E-11
   25.5498581        -5.97005570E-11
   25.6766510        -1.50575052E-10
   25.8034439        -2.46246551E-10
   25.9302368        -3.42131518E-10
   26.0570297        -4.33054453E-10
   26.1838226        -5.13467213E-10
   26.3106136        -5.77713211E-10
   26.4374065        -6.20327401E-10
   26.5641994        -6.36359243E-10
   26.6909924        -6.21699858E-10
   26.8177853        -5.73401215E-10
   26.9445782        -4.89963070E-10
   27.0713711        -3.71572217E-10
   27.1981640        -2.20274549E-10
   27.3249550        -4.00654614E-11
   27.4517479         1.63119587E-10
   27.5785408         3.81514931E-10
   27.7053337         6.05752282E-10
   27.8321266         8.25192525E-10
   27.9589195         1.02836240E-09
   28.0857124         1.20348265E-09
   28.2125034         1.33906197E-09
   28.3392963         1.42453838E-09
   28.4660892         1.45093104E-09
   28.5928822         1.41146905E-09
   28.7196751         1.30215971E-09
   28.8464680         1.12225906E-09
   28.9732609         8.74600448E-10
   29.1000538         5.65765212E-10
   29.2268448         2.06044057E-10
   29.3536377        -1.90798169E-10
   29.4804306        -6.07990491E-10
   29.6072235        -1.02642073E-09
   29.7340164        -1.42550771E-09
   29.8608093        -1.78421555E-09
   29.9876022        -2.08218998E-09
   30.1143932        -2.30094921E-09
   30.2411861        -2.42505505E-09
   30.3679790        -2.44321074E-09
   30.4947720        -2.34919284E-09
   30.6215649        -2.14256701E-09
   30.7483578        -1.82910953E-09
   30.8751507        -1.42089496E-09
   31.0019417        -9.36015598E-10
   31.1287346        -3.97921612E-10
   31.2555275         1.65621586E-10
   31.3823204         7.23889948E-10
   31.5091133         1.24486621E-09
   31.6359062         1.69708003E-09
   31.7626991         2.05156536E-09
   31.8894920         2.28380315E-09
   32.0162849         2.37553932E-09
   32.1430779         2.31634667E-09
   32.2698708         2.10483209E-09
   32.3966637         1.74937931E-09
   32.5234528         1.26835575E-09
   32.6502457         6.89724833E-10
   32.7770386         5.00555014E-11
   32.9038315        -6.07060013E-10
   33.0306244        -1.23312283E-09
   33.1574173        -1.77729198E-09
   33.2842102        -2.18928431E-09
   33.4110031        -2.42245579E-09
   33.5377960        -2.43687404E-09
   33.6645889        -2.20227592E-09
   33.7913818        -1.70067016E-09
   33.9181747        -9.28433719E-10
   34.0449677         1.02205813E-10
   34.1717606         1.36247058E-09
   34.2985535         2.80716050E-09
   34.4253426         4.37566383E-09
   34.5521355         5.99382810E-09
   34.6789284         7.57666196E-09
   34.8057213         9.03174069E-09
   34.9325142         1.02631965E-08
   35.0593071         1.11761302E-08
   35.1861000         1.16811991E-08
   35.3128929         1.16992025E-08
   35.4396858         1.11654757E-08
   35.5664787         1.00337640E-08
   35.6932716         8.27952729E-09
   35.8200645         5.90238658E-09
   35.9468575         2.92762570E-09
   36.0736504        -5.93321225E-10
   36.2004433        -4.58350469E-09
   36.3272324        -8.94212970E-09
   36.4540253        -1.35472833E-08
   36.5808182        -1.82595770E-08
   36.7076111        -2.29265567E-08
   36.8344040        -2.73876992E-08
   36.9611969        -3.14799387E-08
   37.0879898        -3.50432074E-08
   37.2147827        -3.79260641E-08
   37.3415756        -3.99911144E-08
   37.4683685        -4.11199359E-08
   37.5951614        -4.12173939E-08
   37.7219543        -4.02152303E-08
   37.8487473        -3.80748375E-08
   37.9755402        -3.47889682E-08
   38.1023293        -3.03826084E-08
   38.2291222        -2.49127510E-08
   38.3559151        -1.84673166E-08
   38.4827080        -1.11631504E-08
   38.6095009        -3.14321857E-09
   38.7362938         5.42679546E-09
   38.8630867         1.43625947E-08
   38.9898796         2.34656241E-08
   39.1166725         3.25278577E-08
   39.2434654         4.13366266E-08
   39.3702583         4.96795991E-08
   39.4970512         5.73495562E-08
   39.6238441         6.41491056E-08
   39.7506371         6.98950799E-08
   39.8774300         7.44225304E-08
   40.0042191         7.75885241E-08
   40.1310120         7.92754022E-08
   40.2578049         7.93935655E-08
   40.3845978         7.78839464E-08
   40.5113907         7.47198143E-08
   40.6381836         6.99082534E-08
   40.7649765         6.34909867E-08
   40.8917694         5.55447741E-08
   41.0185623         4.61810536E-08
   41.1453552         3.55451064E-08
   41.2721481         2.38143159E-08
   41.3989410         1.11957679E-08
   41.5257339        -2.07720752E-09
   41.6525269        -1.57493272E-08
   41.7793198        -2.95488789E-08
   41.9061089        -4.31943441E-08
   42.0329018        -5.64022535E-08
   42.1596947        -6.88963482E-08
   42.2864876        -8.04179550E-08
   42.4132805        -9.07375437E-08
   42.5400734        -9.96675098E-08
   42.6668663        -1.07075763E-07
   42.7936592        -1.12900317E-07
   42.9204521        -1.17164063E-07
   43.0472450        -1.19989991E-07
   43.1740379        -1.21616083E-07
   43.3008308        -1.22409944E-07
   43.4276237        -1.22881971E-07
   43.5544167        -1.23697760E-07
   43.6812096        -1.25688103E-07
   43.8079987        -1.29856986E-07
   43.9347916        -1.37386763E-07
   44.0615845        -1.49640229E-07
   44.1883774        -1.68159019E-07
   44.3151703        -1.94658327E-07
   44.4419632        -2.31017353E-07
   44.5687561        -2.79264697E-07
   44.6955490        -3.41560735E-07
   44.8223419        -4.20172711E-07
   44.9491348        -5.17447461E-07
   45.0759277        -6.35777894E-07
   45.2027206        -7.77565504E-07
   45.3295135        -9.45178328E-07
   45.4563065        -1.14090346E-06
   45.5830994        -1.36689948E-06
   45.7098885        -1.62514300E-06
   45.8366814        -1.91737490E-06
   45.9634743        -2.24504151E-06
   46.0902672        -2.60924367E-06
   46.2170601        -3.01067939E-06
   46.3438530        -3.44959199E-06
   46.4706459        -3.92572474E-06
   46.5974388        -4.43827639E-06
   46.7242317        -4.98586542E-06
   46.8510246        -5.56651457E-06
   46.9778175        -6.17761771E-06
   47.1046104        -6.81595338E-06
   47.2314034        -7.47769263E-06
   47.3581963        -8.15842031E-06
   47.4849892        -8.85316967E-06
   47.6117783        -9.55649557E-06
   47.7385712        -1.02625345E-05
   47.8653641        -1.09650946E-05
   47.9921570        -1.16577630E-05
   48.1189499        -1.23340151E-05
   48.2457428        -1.29873360E-05
   48.3725357        -1.36113749E-05
   48.4993286        -1.42000590E-05
   48.6261215        -1.47477595E-05
   48.7529144        -1.52494122E-05
   48.8797073        -1.57006725E-05
   49.0065002        -1.60980198E-05
   49.1332932        -1.64388821E-05
   49.2600861        -1.67217295E-05
   49.3868790        -1.69461382E-05
   49.5136681        -1.71128540E-05
   49.6404610        -1.72238015E-05
   49.7672539        -1.72820928E-05
   49.8940468        -1.72919681E-05
   50.0208397        -1.72587606E-05
   50.1476326        -1.71887732E-05
   50.2744255        -1.70891726E-05
   50.4012184        -1.69678442E-05
   50.5280113        -1.68332099E-05
   50.6548042        -1.66940608E-05
   50.7815971        -1.65593265E-05
   50.9083900        -1.64379035E-05
   51.0351830        -1.63384211E-05
   51.1619759        -1.62690412E-05
   51.2887688        -1.62372689E-05
   51.4155579        -1.62497636E-05
   51.5423508        -1.63121767E-05
   51.6691437        -1.64290232E-05
   51.7959366        -1.66035570E-05
   51.9227295        -1.68377064E-05
   52.0495224        -1.71320153E-05
   52.1763153        -1.74856505E-05
   52.3031082        -1.78963965E-05
   52.4299011        -1.83607299E-05
   52.5566940        -1.88739159E-05
   52.6834869        -1.94300774E-05
   52.8102798        -2.00223822E-05
   52.9370728        -2.06431669E-05
   53.0638657        -2.12841296E-05
   53.1906586        -2.19364920E-05
   53.3174477        -2.25912081E-05
   53.4442406        -2.32391558E-05
   53.5710335        -2.38712946E-05
   53.6978264        -2.44788753E-05
   53.8246193        -2.50535904E-05
   53.9514122        -2.55877221E-05
   54.0782051        -2.60742854E-05
   54.2049980        -2.65071394E-05
   54.3317909        -2.68810782E-05
   54.4585838        -2.71919125E-05
   54.5853767        -2.74365175E-05
   54.7121696        -2.76128740E-05
   54.8389626        -2.77200779E-05
   54.9657555        -2.77583313E-05
   55.0925484        -2.77289437E-05
   55.2193375        -2.76342871E-05
   55.3461304        -2.74777449E-05
   55.4729233        -2.72636662E-05
   55.5997162        -2.69972934E-05
   55.7265091        -2.66846691E-05
   55.8533020        -2.63325746E-05
   55.9800949        -2.59484095E-05
   56.1068878        -2.55401046E-05
   56.2336807        -2.51159981E-05
   56.3604736        -2.46847248E-05
   56.4872665        -2.42550814E-05
   56.6140594        -2.38359116E-05
   56.7408524        -2.34359522E-05
   56.8676453        -2.30636997E-05
   56.9944382        -2.27272812E-05
   57.1212273        -2.24343039E-05
   57.2480202        -2.21917217E-05
   57.3748131        -2.20057118E-05
   57.5016060        -2.18815421E-05
   57.6283989        -2.18235018E-05
   57.7551918        -2.18347686E-05
   57.8819847        -2.19173708E-05
   58.0087776        -2.20721449E-05
   58.1355705        -2.22986855E-05
   58.2623634        -2.25953900E-05
   58.3891563        -2.29594734E-05
   58.5159492        -2.33870469E-05
   58.6427422        -2.38731736E-05
   58.7695351        -2.44120438E-05
   58.8963280        -2.49970435E-05
   59.0231171        -2.56209587E-05
   59.1499100        -2.62761278E-05
   59.2767029        -2.69546017E-05
   59.4034958        -2.76483624E-05
   59.5302887        -2.83494483E-05
   59.6570816        -2.90501412E-05
   59.7838745        -2.97431015E-05
   59.9106674        -3.04215027E-05
   60.0374603        -3.10791074E-05
   60.1642532        -3.17103513E-05
   60.2910461        -3.23103450E-05
   60.4178391        -3.28749084E-05
   60.5446320        -3.34005090E-05
   60.6714249        -3.38842037E-05
   60.7982178        -3.43235406E-05
   60.9250069        -3.47164605E-05
   61.0517998        -3.50611517E-05
   61.1785927        -3.53559262E-05
   61.3053856        -3.55990669E-05
   61.4321785        -3.57887511E-05
   61.5589714        -3.59228725E-05
   61.6857643        -3.59990154E-05
   61.8125572        -3.60143895E-05
   61.9393501        -3.59658079E-05
   62.0661430        -3.58497346E-05
   62.1929359        -3.56623350E-05
   62.3197289        -3.53996438E-05
   62.4465218        -3.50576665E-05
   62.5733147        -3.46326233E-05
   62.7001076        -3.41211635E-05
   62.8268967        -3.35206241E-05
   62.9536896        -3.28292917E-05
   63.0804825        -3.20466825E-05
   63.2072754        -3.11738113E-05
   63.3340683        -3.02134140E-05
   63.4608612        -2.91701708E-05
   63.5876541        -2.80508539E-05
   63.7144470        -2.68644599E-05
   63.8412399        -2.56222429E-05
   63.9680328        -2.43376835E-05
   64.0948257        -2.30264013E-05
   64.2216187        -2.17059842E-05
   64.3484116        -2.03957297E-05
   64.4752045        -1.91163381E-05
   64.6019974        -1.78895480E-05
   64.7287903        -1.67376784E-05
   64.8555832        -1.56831757E-05
   64.9823761        -1.47481242E-05
   65.1091690        -1.39537096E-05
   65.2359619        -1.33197364E-05
   65.3627548        -1.28641332E-05
   65.4895477        -1.26025107E-05
   65.6163330        -1.25477427E-05
   65.7431259        -1.27096555E-05
   65.8699188        -1.30947510E-05
   65.9967117        -1.37060360E-05
   66.1235046        -1.45429358E-05
   66.2502975        -1.56012975E-05
   66.3770905        -1.68734969E-05
   66.5038834        -1.83486172E-05
   66.6306763        -2.00127251E-05
   66.7574692        -2.18492187E-05
   66.8842621        -2.38392167E-05
   67.0110550        -2.59620374E-05
   67.1378479        -2.81956454E-05
   67.2646408        -3.05171779E-05
   67.3914337        -3.29034337E-05
   67.5182266        -3.53313371E-05
   67.6450195        -3.77783981E-05
   67.7718124        -4.02230871E-05
   67.8986053        -4.26451734E-05
   68.0253983        -4.50260086E-05
   68.1521912        -4.73486762E-05
   68.2789841        -4.95981512E-05
   68.4057770        -5.17612643E-05
   68.5325699        -5.38267013E-05
   68.6593628        -5.57848907E-05
   68.7861557        -5.76277853E-05
   68.9129486        -5.93486402E-05
   69.0397415        -6.09417912E-05
   69.1665344        -6.24023378E-05
   69.2933273        -6.37258272E-05
   69.4201126        -6.49080248E-05
   69.5469055        -6.59446378E-05
   69.6736984        -6.68311259E-05
   69.8004913        -6.75624688E-05
   69.9272842        -6.81331803E-05
   70.0540771        -6.85371633E-05
   70.1808701        -6.87678621E-05
   70.3076630        -6.88182990E-05
   70.4344559        -6.86813073E-05
   70.5612488        -6.83497856E-05
   70.6880417        -6.78169963E-05
   70.8148346        -6.70769659E-05
   70.9416275        -6.61248632E-05
   71.0684204        -6.49573776E-05
   71.1952133        -6.35731849E-05
   71.3220062        -6.19733255E-05
   71.4487991        -6.01615757E-05
   71.5755920        -5.81447712E-05
   71.7023849        -5.59330110E-05
   71.8291779        -5.35399304E-05
   71.9559708        -5.09827696E-05
   72.0827637        -4.82823380E-05
   72.2095566        -4.54629917E-05
   72.3363495        -4.25524377E-05
   72.4631424        -3.95814641E-05
   72.5899353        -3.65836131E-05
   72.7167282        -3.35947043E-05
   72.8435211        -3.06524053E-05
   72.9703140        -2.77956333E-05
   73.0971069        -2.50640151E-05
   73.2238922        -2.24972300E-05
   73.3506851        -2.01344174E-05
   73.4774780        -1.80135485E-05
   73.6042709        -1.61708194E-05
   73.7310638        -1.46400826E-05
   73.8578568        -1.34523061E-05
   73.9846497        -1.26350824E-05
   74.1114426        -1.22121983E-05
   74.2382355        -1.22032570E-05
   74.3650284        -1.26233572E-05
   74.4918213        -1.34828479E-05
   74.6186142        -1.47871415E-05
   74.7454071        -1.65365782E-05
   74.8722000        -1.87263868E-05
   74.9989929        -2.13466465E-05
   75.1257858        -2.43823688E-05
   75.2525787        -2.78135903E-05
   75.3793716        -3.16155420E-05
   75.5061646        -3.57588506E-05
   75.6329575        -4.02097940E-05
   75.7597504        -4.49306426E-05
   75.8865433        -4.98799782E-05
   76.0133362        -5.50130826E-05
   76.1401291        -6.02824111E-05
   76.2669220        -6.56380653E-05
   76.3937149        -7.10282402E-05
   76.5205078        -7.63998542E-05
   76.6473007        -8.16989996E-05
   76.7740936        -8.68715870E-05
   76.9008865        -9.18639053E-05
   77.0276718        -9.66231964E-05
   77.1544647        -1.01098121E-04
   77.2812576        -1.05239429E-04
   77.4080505        -1.09000386E-04
   77.5348434        -1.12337199E-04
   77.6616364        -1.15209448E-04
   77.7884293        -1.17580486E-04
   77.9152222        -1.19417586E-04
   78.0420151        -1.20692341E-04
   78.1688080        -1.21380617E-04
   78.2956009        -1.21462777E-04
   78.4223938        -1.20923687E-04
   78.5491867        -1.19752694E-04
   78.6759796        -1.17943506E-04
   78.8027725        -1.15494222E-04
   78.9295654        -1.12407099E-04
   79.0563583        -1.08688480E-04
   79.1831512        -1.04348670E-04
   79.3099442        -9.94017682E-05
   79.4367371        -9.38656303E-05
   79.5635300        -8.77617495E-05
   79.6903229        -8.11151549E-05
   79.8171158        -7.39544485E-05
   79.9439087        -6.63117171E-05
   80.0707016        -5.82224930E-05
   80.1974945        -4.97258516E-05
   80.3242874        -4.08642445E-05
   80.4510803        -3.16835321E-05
   80.5778732        -2.22328454E-05
   80.7046585        -1.25644592E-05
   80.8314514        -2.73354317E-06
   80.9582443         7.20212165E-06
   81.0850372         1.71825486E-05
   81.2118301         2.71460212E-05
   81.3386230         3.70297348E-05
   81.4654160         4.67704194E-05
   81.5922089         5.63051508E-05
   81.7190018         6.55722397E-05
   81.8457947         7.45120851E-05
   81.9725876         8.30681893E-05
   82.0993805         9.11880852E-05
   82.2261734         9.88243846E-05
   82.3529663         1.05935556E-04
   82.4797592         1.12486938E-04
   82.6065521         1.18451353E-04
   82.7333450         1.23809776E-04
   82.8601379         1.28551736E-04
   82.9869308         1.32675617E-04
   83.1137238         1.36188683E-04
   83.2405167         1.39106982E-04
   83.3673096         1.41454788E-04
   83.4941025         1.43264304E-04
   83.6208954         1.44574515E-04
   83.7476883         1.45430517E-04
   83.8744812         1.45882150E-04
   84.0012741         1.45982718E-04
   84.1280670         1.45787722E-04
   84.2548599         1.45353275E-04
   84.3816528         1.44734688E-04
   84.5084381         1.43985075E-04
   84.6352310         1.43153957E-04
   84.7620239         1.42285964E-04
   84.8888168         1.41419820E-04
   85.0156097         1.40587508E-04
   85.1424026         1.39813375E-04
   85.2691956         1.39113879E-04
   85.3959885         1.38497417E-04
   85.5227814         1.37964176E-04
   85.6495743         1.37506606E-04
   85.7763672         1.37109993E-04
   85.9031601         1.36753064E-04
   86.0299530         1.36409028E-04
   86.1567459         1.36046699E-04
   86.2835388         1.35631621E-04
   86.4103317         1.35127484E-04
   86.5371246         1.34497328E-04
   86.6639175         1.33704976E-04
   86.7907104         1.32716188E-04
   86.9175034         1.31500012E-04
   87.0442963         1.30029744E-04
   87.1710892         1.28283878E-04
   87.2978821         1.26246887E-04
   87.4246750         1.23909806E-04
   87.5514679         1.21270619E-04
   87.6782608         1.18334436E-04
   87.8050537         1.15113486E-04
   87.9318466         1.11626920E-04
   88.0586395         1.07900458E-04
   88.1854324         1.03965838E-04
   88.3122177         9.98602045E-05
   88.4390106         9.56252406E-05
   88.5658035         9.13063122E-05
   88.6925964         8.69516007E-05
   88.8193893         8.26109463E-05
   88.9461823         7.83350333E-05
   89.0729752         7.41741969E-05
   89.1997681         7.01775425E-05
   89.3265610         6.63919709E-05
   89.4533539         6.28613343E-05
   89.5801468         5.96255886E-05
   89.7069397         5.67201132E-05
   89.8337326         5.41751142E-05
   89.9605255         5.20152025E-05
   90.0873184         5.02589355E-05
   90.2141113         4.89187041E-05
   90.3409042         4.80005692E-05
   90.4676971         4.75043671E-05
   90.5944901         4.74238404E-05
   90.7212830         4.77469621E-05
   90.8480759         4.84563170E-05
   90.9748688         4.95296590E-05
   91.1016617         5.09404490E-05
   91.2284546         5.26585900E-05
   91.3552475         5.46510601E-05
   91.4820404         5.68827636E-05
   91.6088333         5.93171862E-05
   91.7356262         6.19172206E-05
   91.8624191         6.46458575E-05
   91.9892120         6.74668336E-05
   92.1159973         7.03452533E-05
   92.2427902         7.32481058E-05
   92.3695831         7.61446863E-05
   92.4963760         7.90068952E-05
   92.6231689         8.18095214E-05
   92.7499619         8.45302347E-05
   92.8767548         8.71497250E-05
   93.0035477         8.96515194E-05
   93.1303406         9.20218736E-05
   93.2571335         9.42494880E-05
   93.3839264         9.63252460E-05
   93.5107193         9.82418060E-05
   93.6375122         9.99933691E-05
   93.7643051         1.01575257E-04
   93.8910980         1.02983548E-04
   94.0178909         1.04214814E-04
   94.1446838         1.05265914E-04
   94.2714767         1.06133666E-04
   94.3982697         1.06814870E-04
   94.5250626         1.07306107E-04
   94.6518555         1.07603868E-04
   94.7786484         1.07704553E-04
   94.9054413         1.07604654E-04
   95.0322342         1.07300846E-04
   95.1590271         1.06790394E-04
   95.2858200         1.06071195E-04
   95.4126129         1.05142186E-04
   95.5394058         1.04003506E-04
   95.6661987         1.02656843E-04
   95.7929916         1.01105412E-04
   95.9197769         9.93543290E-05
   96.0465698         9.74105351E-05
   96.1733627         9.52828414E-05
   96.3001556         9.29818852E-05
   96.4269485         9.05199850E-05
   96.5537415         8.79108411E-05
   96.6805344         8.51694058E-05
   96.8073273         8.23113805E-05
   96.9341202         7.93529834E-05
   97.0609131         7.63104617E-05
   97.1877060         7.31997643E-05
   97.3144989         7.00360979E-05
   97.4412918         6.68336070E-05
   97.5680847         6.36050609E-05
   97.6948776         6.03616390E-05
   97.8216705         5.71127421E-05
   97.9484634         5.38659478E-05
   98.0752563         5.06270590E-05