  -4.50000000         0.00000000    
  -4.37320757         0.00000000    
  -4.24641466         0.00000000    
  -4.11962223         0.00000000    
  -3.99282932         0.00000000    
  -3.86603665         0.00000000    
  -3.73924398         0.00000000    
  -3.61245155         7.16067101E-31
  -3.48565888         2.95901099E-30
  -3.35886621         3.33744310E-29
  -3.23207355         1.46850473E-28
  -3.10528088         6.37133303E-28
  -2.97848821         3.28137440E-27
  -2.85169554         1.65843522E-26
  -2.72490287         7.06270250E-26
  -2.59811020         2.46638792E-25
  -2.47131753         7.13481745E-25
  -2.34452486         1.72876619E-24
  -2.21773219         3.51331076E-24
  -2.09093952         5.88988085E-24
  -1.96414697         7.68068031E-24
  -1.83735430         6.16859922E-24
  -1.71056163        -2.59840231E-24
  -1.58376896        -2.15666588E-23
  -1.45697629        -4.78914111E-23
  -1.33018374        -6.69377445E-23
  -1.20339108        -4.97525327E-23
  -1.07659841         3.81556274E-23
 -0.949805737         2.09442419E-22
 -0.823013067         4.10080696E-22
 -0.696220458         4.76000639E-22
 -0.569427788         1.32152617E-22
 -0.442635119        -9.13597157E-22
 -0.315842479        -2.74916223E-21
 -0.189049825        -4.94377862E-21
  -6.22571707E-02    -6.28206880E-21
   6.45354837E-02    -4.79339614E-21
  0.191328138         1.65166552E-21
  0.318120778         1.40464412E-20
  0.444913447         3.04698958E-20
  0.571706116         4.45299306E-20
  0.698498726         4.51698388E-20
  0.825291395         1.90671820E-20
  0.952084064        -4.36946139E-20
   1.07887673        -1.41293305E-19
   1.20566940        -2.51596987E-19
   1.33246195        -3.27492669E-19
   1.45925462        -3.00976878E-19
   1.58604729        -9.97415869E-20
   1.71283996         3.23424518E-19
   1.83963263         9.53398551E-19
   1.96642530         1.67845379E-18
   2.09321785         2.27398423E-18
   2.22001052         2.41958063E-18
   2.34680319         1.75970371E-18
   2.47359586         7.63006503E-21
   2.60038853        -2.92172042E-18
   2.72718120        -6.77829307E-18
   2.85397387        -1.08801341E-17
   2.98076653        -1.40916884E-17
   3.10755920        -1.49070139E-17
   3.23435187        -1.16518357E-17
   3.36114454        -2.79924309E-18
   3.48793697         1.26231922E-17
   3.61472964         3.45700781E-17
   3.74152231         6.15041079E-17
   3.86831498         8.99715353E-17
   3.99510765         1.14314892E-16
   4.12190056         1.26653316E-16
   4.24869299         1.17310993E-16
   4.37548542         7.59059113E-17
   4.50227833        -6.71690758E-18
   4.62907076        -1.35650818E-16
   4.75586367        -3.08393235E-16
   4.88265610        -5.11184278E-16
   5.00944901        -7.16205373E-16
   5.13624144        -8.80952964E-16
   5.26303434        -9.51172578E-16
   5.38982677        -8.68394112E-16
   5.51661968        -5.82264000E-16
   5.64341211        -6.65784771E-17
   5.77020502         6.63602139E-16
   5.89699745         1.53775158E-15
   6.02379036         2.42334432E-15
   6.15058279         3.13147467E-15
   6.27737522         3.43755680E-15
   6.40416813         3.11727924E-15
   6.53096056         1.99442568E-15
   6.65775347        -6.42308475E-18
   6.78454590        -2.81208035E-15
   6.91133881        -6.16874402E-15
   7.03813124        -9.63569265E-15
   7.16492414        -1.26114100E-14
   7.29171658        -1.43940408E-14
   7.41850948        -1.42724730E-14
   7.54530191        -1.16389781E-14
   7.67209482        -6.11027545E-15
   7.79888725         2.35865176E-15
   7.92567968         1.33841006E-14
   8.05247211         2.61019911E-14
   8.17926502         3.91683824E-14
   8.30605793         5.08229865E-14
   8.43285084         5.90227262E-14
   8.55964279         6.16475390E-14
   8.68643570         5.67731355E-14
   8.81322861         4.29954263E-14
   8.94002151         1.97787563E-14
   9.06681347        -1.22136544E-14
   9.19360638        -5.08610149E-14
   9.32039928        -9.24598126E-14
   9.44719219        -1.31793705E-13
   9.57398415        -1.62448641E-13
   9.70077705        -1.77402282E-13
   9.82756996        -1.69882717E-13
   9.95436192        -1.34453998E-13
   10.0811548        -6.82433778E-14
   10.2079477         2.78128943E-14
   10.3347406         1.47857760E-13
   10.4615326         2.80308518E-13
   10.5883255         4.07535008E-13
   10.7151184         5.06186239E-13
   10.8419113         5.48303482E-13
   10.9687033         5.03312561E-13
   11.0954962         3.40920163E-13
   11.2222891         3.48619483E-14
   11.3490820        -4.32655837E-13
   11.4758739        -1.06608841E-12
   11.6026669        -1.85164319E-12
   11.7294598        -2.75281859E-12
   11.8562517        -3.70697049E-12
   11.9830446        -4.62352205E-12
   12.1098375        -5.38443812E-12
   12.2366304        -5.84750607E-12
   12.3634224        -5.85285249E-12
   12.4902153        -5.23292043E-12
   12.6170082        -3.82588102E-12
   12.7438011        -1.49216913E-12
   12.8705931         1.86650717E-12
   12.9973860         6.28668558E-12
   13.1241789         1.17225613E-11
   13.2509708         1.80269809E-11
   13.3777637         2.49359977E-11
   13.5045567         3.20591331E-11
   13.6313496         3.88776095E-11
   13.7581415         4.47524968E-11
   13.8849344         4.89446886E-11
   14.0117273         5.06475972E-11
   14.1385202         4.90330242E-11
   14.2653122         4.33093839E-11
   14.3921051         3.27903503E-11
   14.5188980         1.69707859E-11
   14.6456909        -4.39438937E-12
   14.7724829        -3.12137920E-11
   14.8992758        -6.29918756E-11
   15.0260687        -9.87765147E-11
   15.1528606        -1.37128545E-10
   15.2796535        -1.76119563E-10
   15.4064465        -2.13363049E-10
   15.5332394        -2.46082849E-10
   15.6600313        -2.71220463E-10
   15.7868242        -2.85580531E-10
   15.9136171        -2.86011465E-10
   16.0404091        -2.69614359E-10
   16.1672020        -2.33970954E-10
   16.2939949        -1.77379209E-10
   16.4207878        -9.90819510E-11
   16.5475807         5.27304437E-13
   16.6743736         1.19736970E-10
   16.8011646         2.55405280E-10
   16.9279575         4.02917200E-10
   17.0547504         5.56222735E-10
   17.1815434         7.07965242E-10
   17.3083363         8.49703086E-10
   17.4351292         9.72224079E-10
   17.5619221         1.06594611E-09
   17.6887150         1.12139098E-09
   17.8155060         1.12971343E-09
   17.9422989         1.08326281E-09
   18.0690918         9.76147718E-10
   18.1958847         8.04776357E-10
   18.3226776         5.68336656E-10
   18.4494705         2.69186173E-10
   18.5762634        -8.68807179E-11
   18.7030544        -4.90512686E-10
   18.8298473        -9.28851385E-10
   18.9566402        -1.38576417E-09
   19.0834332        -1.84226623E-09
   19.2102261        -2.27712804E-09
   19.3370190        -2.66765365E-09
   19.4638119        -2.99060865E-09
   19.5906048        -3.22326543E-09
   19.7173958        -3.34452221E-09
   19.8441887        -3.33605854E-09
   19.9709816        -3.18346083E-09
   20.0977745        -2.87727553E-09
   20.2245674        -2.41393083E-09
   20.3513603        -1.79646842E-09
   20.4781532        -1.03504350E-09
   20.6049442        -1.47148918E-10
   20.7317371         8.42469705E-10
   20.8585300         1.90222926E-09
   20.9853230         2.99446112E-09
   21.1121159         4.07649203E-09
   21.2389088         5.10204279E-09
   21.3657017         6.02289285E-09
   21.4924946         6.79078083E-09
   21.6192856         7.35945971E-09
   21.7460785         7.68684849E-09
   21.8728714         7.73719133E-09
   21.9996643         7.48312612E-09
   22.1264572         6.90758428E-09
   22.2532501         6.00542061E-09
   22.3800430         4.78466733E-09
   22.5068340         3.26737060E-09
   22.6336269         1.48987211E-09
   22.7604198        -4.97435759E-10
   22.8872128        -2.63100741E-09
   23.0140057        -4.83564877E-09
   23.1407986        -7.02664327E-09
   23.2675915        -9.11247700E-09
   23.3943844        -1.09980745E-08
   23.5211754        -1.25884991E-08
   23.6479683        -1.37929463E-08
   23.7747612        -1.45289700E-08
   23.9015541        -1.47266945E-08
   24.0283470        -1.43329277E-08
   24.1551399        -1.33148852E-08
   24.2819328        -1.16634622E-08
   24.4087238        -9.39574463E-09
   24.5355167        -6.55664101E-09
   24.6623096        -3.21951776E-09
   24.7891026         5.14381870E-10
   24.9158955         4.51772841E-09
   25.0426884         8.64020144E-09
   25.1694813         1.27128619E-08
   25.2962742         1.65537379E-08
   25.4230652         1.99744701E-08
   25.5498581         2.27879084E-08
   25.6766510         2.48163214E-08
   25.8034439         2.58999791E-08
   25.9302368         2.59057629E-08
   26.0570297         2.47354404E-08
   26.1838226         2.23331824E-08
   26.3106136         1.86919760E-08
   26.4374065         1.38584237E-08
   26.5641994         7.93578980E-09
   26.6909924         1.08481724E-09
   26.8177853        -6.47791110E-09
   26.9445782        -1.44841117E-08
   27.0713711        -2.26205419E-08
   27.1981640        -3.05383203E-08
   27.3249550        -3.78646163E-08
   27.4517479        -4.42163817E-08
   27.5785408        -4.92157852E-08
   27.7053337        -5.25067705E-08
   27.8321266        -5.37721938E-08
   27.9589195        -5.27508242E-08
   28.0857124        -4.92534049E-08
   28.2125034        -4.31772698E-08
   28.3392963        -3.45184006E-08
   28.4660892        -2.33805810E-08
   28.5928822        -9.98079663E-09
   28.7196751         5.34956524E-09
   28.8464680         2.21680381E-08
   28.9732609         3.99292297E-08
   29.1000538         5.79978483E-08
   29.2268448         7.56662786E-08
   29.3536377         9.21765348E-08
   29.4804306         1.06746057E-07
   29.6072235         1.18596375E-07
   29.7340164         1.26983977E-07
   29.8608093         1.31232127E-07
   29.9876022         1.30762658E-07
   30.1143932         1.25126235E-07
   30.2411861         1.14030207E-07
   30.3679790         9.73622960E-08
   30.4947720         7.52095346E-08
   30.6215649         4.78709730E-08
   30.7483578         1.58634919E-08
   30.8751507        -2.00799004E-08
   31.0019417        -5.90198184E-08
   31.1287346        -9.98282346E-08
   31.2555275        -1.41214272E-07
   31.3823204        -1.81757315E-07
   31.5091133        -2.19946855E-07
   31.6359062        -2.54228183E-07
   31.7626991        -2.83051918E-07
   31.8894920        -3.04927028E-07
   32.0162849        -3.18474832E-07
   32.1430779        -3.22482322E-07
   32.2698708        -3.15953059E-07
   32.3966637        -2.98154418E-07
   32.5234528        -2.68658113E-07
   32.6502457        -2.27373917E-07
   32.7770386        -1.74574168E-07
   32.9038315        -1.10908168E-07
   33.0306244        -3.74058899E-08
   33.1574173         4.45298944E-08
   33.2842102         1.33143359E-07
   33.4110031         2.26356448E-07
   33.5377960         3.21811257E-07
   33.6645889         4.16921978E-07
   33.7913818         5.08936353E-07
   33.9181747         5.95004224E-07
   34.0449677         6.72251872E-07
   34.1717606         7.37860489E-07
   34.2985535         7.89145986E-07
   34.4253426         8.23638118E-07
   34.5521355         8.39157678E-07
   34.6789284         8.33887896E-07
   34.8057213         8.06439743E-07
   34.9325142         7.55907593E-07
   35.0593071         6.81914344E-07
   35.1861000         5.84645193E-07
   35.3128929         4.64867071E-07
   35.4396858         3.23935240E-07
   35.5664787         1.63783966E-07
   35.6932716        -1.30960478E-08
   35.8200645        -2.03695166E-07
   35.9468575        -4.04535712E-07
   36.0736504        -6.11734833E-07
   36.2004433        -8.21079652E-07
   36.3272324        -1.02810952E-06
   36.4540253        -1.22820745E-06
   36.5808182        -1.41669648E-06
   36.7076111        -1.58893693E-06
   36.8344040        -1.74042634E-06
   36.9611969        -1.86689533E-06
   37.0879898        -1.96440124E-06
   37.2147827        -2.02941374E-06
   37.3415756        -2.05889069E-06
   37.4683685        -2.05034667E-06
   37.5951614        -2.00190971E-06
   37.7219543        -1.91236131E-06
   37.8487473        -1.78116954E-06
   37.9755402        -1.60850516E-06
   38.1023293        -1.39524650E-06
   38.2291222        -1.14297177E-06
   38.3559151        -8.53941685E-07
   38.4827080        -5.31072374E-07
   38.6095009        -1.77900816E-07
   38.7362938         2.01454796E-07
   38.8630867         6.02337991E-07
   38.9898796         1.01959790E-06
   39.1166725         1.44763339E-06
   39.2434654         1.88043362E-06
   39.3702583         2.31161516E-06
   39.4970512         2.73445312E-06
   39.6238441         3.14191084E-06
   39.7506371         3.52665734E-06
   39.8774300         3.88108538E-06
   40.0042191         4.19732260E-06
   40.1310120         4.46724334E-06
   40.2578049         4.68247390E-06
   40.3845978         4.83440590E-06
   40.5113907         4.91421360E-06
   40.6381836         4.91287483E-06
   40.7649765         4.82120413E-06
   40.8917694         4.62990147E-06
   41.0185623         4.32960769E-06
   41.1453552         3.91098865E-06
   41.2721481         3.36482549E-06
   41.3989410         2.68213171E-06
   41.5257339         1.85428439E-06
   41.6525269         8.73173576E-07
   41.7793198        -2.68631197E-07
   41.9061089        -1.57770569E-06
   42.0329018        -3.05958361E-06
   42.1596947        -4.71856765E-06
   42.2864876        -6.55753274E-06
   42.4132805        -8.57775467E-06
   42.5400734        -1.07787173E-05
   42.6668663        -1.31579682E-05
   42.7936592        -1.57109716E-05
   42.9204521        -1.84310084E-05
   43.0472450        -2.13090825E-05
   43.1740379        -2.43338891E-05
   43.3008308        -2.74917784E-05
   43.4276237        -3.07668379E-05
   43.5544167        -3.41408995E-05
   43.6812096        -3.75937052E-05
   43.8079987        -4.11030451E-05
   43.9347916        -4.46449412E-05
   44.0615845        -4.81938660E-05
   44.1883774        -5.17230546E-05
   44.3151703        -5.52047604E-05
   44.4419632        -5.86105380E-05
   44.5687561        -6.19116399E-05
   44.6955490        -6.50793299E-05
   44.8223419        -6.80852827E-05
   44.9491348        -7.09018423E-05
   45.0759277        -7.35025533E-05
   45.2027206        -7.58623355E-05
   45.3295135        -7.79578841E-05
   45.4563065        -7.97680550E-05
   45.5830994        -8.12740036E-05
   45.7098885        -8.24595700E-05
   45.8366814        -8.33114827E-05
   45.9634743        -8.38194901E-05
   46.0902672        -8.39765271E-05
   46.2170601        -8.37788757E-05
   46.3438530        -8.32261212E-05
   46.4706459        -8.23212540E-05
   46.5974388        -8.10705897E-05
   46.7242317        -7.94836815E-05
   46.8510246        -7.75731605E-05
   46.9778175        -7.53546628E-05
   47.1046104        -7.28465093E-05
   47.2314034        -7.00695164E-05
   47.3581963        -6.70467052E-05
   47.4849892        -6.38030324E-05
   47.6117783        -6.03650151E-05
   47.7385712        -5.67604911E-05
   47.8653641        -5.30181969E-05
   47.9921570        -4.91675419E-05
   48.1189499        -4.52381937E-05
   48.2457428        -4.12598420E-05
   48.3725357        -3.72619215E-05
   48.4993286        -3.32733798E-05
   48.6261215        -2.93223638E-05
   48.7529144        -2.54362003E-05
   48.8797073        -2.16410735E-05
   49.0065002        -1.79620311E-05
   49.1332932        -1.44228206E-05
   49.2600861        -1.10458423E-05
   49.3868790        -7.85211250E-06
   49.5136681        -4.86121007E-06
   49.6404610        -2.09121413E-06
   49.7672539         4.41244794E-07
   49.8940468         2.72107400E-06
   50.0208397         4.73475120E-06
   50.1476326         6.47037905E-06
   50.2744255         7.91772254E-06
   50.4012184         9.06842070E-06
   50.5280113         9.91604884E-06
   50.6548042         1.04562641E-05
   50.7815971         1.06870539E-05
   50.9083900         1.06088555E-05
   51.0351830         1.02247168E-05
   51.1619759         9.54054485E-06
   51.2887688         8.56524366E-06
   51.4155579         7.31078489E-06
   51.5423508         5.79247489E-06
   51.6691437         4.02885917E-06
   51.7959366         2.04179446E-06
   51.9227295        -1.43646332E-07
   52.0495224        -2.49931600E-06
   52.1763153        -4.99422958E-06
   52.3031082        -7.59489285E-06
   52.4299011        -1.02657032E-05
   52.5566940        -1.29694045E-05
   52.6834869        -1.56676451E-05
   52.8102798        -1.83215379E-05
   52.9370728        -2.08922957E-05
   53.0638657        -2.33419360E-05
   53.1906586        -2.56338972E-05
   53.3174477        -2.77337786E-05
   53.4442406        -2.96099588E-05
   53.5710335        -3.12341290E-05
   53.6978264        -3.25819165E-05
   53.8246193        -3.36332596E-05
   53.9514122        -3.43727297E-05
   54.0782051        -3.47898531E-05
   54.2049980        -3.48791946E-05
   54.3317909        -3.46403067E-05
   54.4585838        -3.40778060E-05
   54.5853767        -3.32010459E-05
   54.7121696        -3.20238360E-05
   54.8389626        -3.05641406E-05
   54.9657555        -2.88434621E-05
   55.0925484        -2.68865442E-05
   55.2193375        -2.47205571E-05
   55.3461304        -2.23747575E-05
   55.4729233        -1.98798043E-05
   55.5997162        -1.72672480E-05
   55.7265091        -1.45689964E-05
   55.8533020        -1.18168491E-05
   55.9800949        -9.04204626E-06
   56.1068878        -6.27500413E-06
   56.2336807        -3.54486974E-06
   56.3604736        -8.79330798E-07
   56.4872665         1.69560201E-06
   56.6140594         4.15569684E-06
   56.7408524         6.47861452E-06
   56.8676453         8.64401591E-06
   56.9944382         1.06335956E-05
   57.1212273         1.24311464E-05
   57.2480202         1.40226748E-05
   57.3748131         1.53964029E-05
   57.5016060         1.65429228E-05
   57.6283989         1.74553461E-05
   57.7551918         1.81293708E-05
   57.8819847         1.85635290E-05
   58.0087776         1.87592941E-05
   58.1355705         1.87213409E-05
   58.2623634         1.84576056E-05
   58.3891563         1.79795334E-05
   58.5159492         1.73021563E-05
   58.6427422         1.64441262E-05
   58.7695351         1.54276622E-05
   58.8963280         1.42785175E-05
   59.0231171         1.30256549E-05
   59.1499100         1.17009968E-05
   59.2767029         1.03389357E-05
   59.4034958         8.97580503E-06
   59.5302887         7.64928518E-06
   59.6570816         6.39750579E-06
   59.7838745         5.25837731E-06
   59.9106674         4.26863471E-06
   60.0374603         3.46288289E-06
   60.1642532         2.87274042E-06
   60.2910461         2.52588211E-06
   60.4178391         2.44520197E-06
   60.5446320         2.64807477E-06
   60.6714249         3.14568433E-06
   60.7982178         3.94251447E-06
   60.9250069         5.03605770E-06
   61.0517998         6.41658016E-06
   61.1785927         8.06722437E-06
   61.3053856         9.96429662E-06
   61.4321785         1.20775740E-05
   61.5589714         1.43710577E-05
   61.6857643         1.68038059E-05
   61.8125572         1.93309243E-05
   61.9393501         2.19046651E-05
   62.0661430         2.44756775E-05
   62.1929359         2.69943521E-05
   62.3197289         2.94120891E-05
   62.4465218         3.16827427E-05
   62.5733147         3.37637211E-05
   62.7001076         3.56173587E-05
   62.8268967         3.72118848E-05
   62.9536896         3.85223138E-05
   63.0804825         3.95311909E-05
   63.2072754         4.02290425E-05
   63.3340683         4.06146755E-05
   63.4608612         4.06951403E-05
   63.5876541         4.04855891E-05
   63.7144470         4.00085883E-05
   63.8412399         3.92936454E-05
   63.9680328         3.83761108E-05
   64.0948257         3.72961658E-05
   64.2216187         3.60974846E-05
   64.3484116         3.48259418E-05
   64.4752045         3.35280783E-05
   64.6019974         3.22496853E-05
   64.7287903         3.10342803E-05
   64.8555832         2.99217263E-05
   64.9823761         2.89468935E-05
   65.1091690         2.81385455E-05
   65.2359619         2.75182920E-05
   65.3627548         2.70999208E-05
   65.4895477         2.68888289E-05
   65.6163330         2.68818058E-05
   65.7431259         2.70670134E-05
   65.8699188         2.74243448E-05
   65.9967117         2.79258911E-05
   66.1235046         2.85368915E-05
   66.2502975         2.92166442E-05
   66.3770905         2.99198819E-05
   66.5038834         3.05981630E-05
   66.6306763         3.12014199E-05
   66.7574692         3.16796250E-05
   66.8842621         3.19844366E-05
   67.0110550         3.20708423E-05
   67.1378479         3.18987295E-05
   67.2646408         3.14343597E-05
   67.3914337         3.06514885E-05
   67.5182266         2.95326845E-05
   67.6450195         2.80699369E-05
   67.7718124         2.62653211E-05
   67.8986053         2.41312118E-05
   68.0253983         2.16903154E-05
   68.1521912         1.89751845E-05
   68.2789841         1.60277887E-05
   68.4057770         1.28983129E-05
   68.5325699         9.64434366E-06
   68.6593628         6.32925457E-06
   68.7861557         3.02077478E-06
   68.9129486        -2.10765123E-07
   69.0397415        -3.29407612E-06
   69.1665344        -6.15872432E-06
   69.2933273        -8.73700083E-06
   69.4201126        -1.09654420E-05
   69.5469055        -1.27865624E-05
   69.6736984        -1.41500896E-05
   69.8004913        -1.50142687E-05
   69.9272842        -1.53468809E-05
   70.0540771        -1.51258546E-05
   70.1808701        -1.43397692E-05
   70.3076630        -1.29879909E-05
   70.4344559        -1.10806041E-05
   70.5612488        -8.63800688E-06
   70.6880417        -5.69019721E-06
   70.8148346        -2.27606029E-06
   70.9416275         1.55783630E-06
   71.0684204         5.75848208E-06
   71.1952133         1.02678241E-05
   71.3220062         1.50241312E-05
   71.4487991         1.99636888E-05
   71.5755920         2.50221656E-05
   71.7023849         3.01362907E-05
   71.8291779         3.52449897E-05
   71.9559708         4.02909391E-05
   72.0827637         4.52216955E-05
   72.2095566         4.99905727E-05
   72.3363495         5.45575276E-05
   72.4631424         5.88897819E-05
   72.5899353         6.29620845E-05
   72.7167282         6.67569038E-05
   72.8435211         7.02644975E-05
   72.9703140         7.34823770E-05
   73.0971069         7.64152210E-05
   73.2238922         7.90739723E-05
   73.3506851         8.14752639E-05
   73.4774780         8.36405598E-05
   73.6042709         8.55952530E-05
   73.7310638         8.73676690E-05
   73.8578568         8.89881121E-05
   73.9846497         9.04878834E-05
   74.1114426         9.18983933E-05
   74.2382355         9.32503899E-05
   74.3650284         9.45731299E-05
   74.4918213         9.58938472E-05
   74.6186142         9.72372000E-05
   74.7454071         9.86248779E-05
   74.8722000         1.00075405E-04
   74.9989929         1.01603931E-04
   75.1257858         1.03222323E-04
   75.2525787         1.04939114E-04
   75.3793716         1.06759988E-04
   75.5061646         1.08687673E-04
   75.6329575         1.10722722E-04
   75.7597504         1.12863425E-04
   75.8865433         1.15106595E-04
   76.0133362         1.17447642E-04
   76.1401291         1.19880977E-04
   76.2669220         1.22400364E-04
   76.3937149         1.24999249E-04
   76.5205078         1.27670763E-04
   76.6473007         1.30407832E-04
   76.7740936         1.33203415E-04
   76.9008865         1.36050163E-04
   77.0276718         1.38940435E-04
   77.1544647         1.41865981E-04
   77.2812576         1.44817706E-04
   77.4080505         1.47785075E-04
   77.5348434         1.50756197E-04
   77.6616364         1.53716901E-04
   77.7884293         1.56650858E-04
   77.9152222         1.59538773E-04
   78.0420151         1.62358469E-04
   78.1688080         1.65084348E-04
   78.2956009         1.67687278E-04
   78.4223938         1.70134721E-04
   78.5491867         1.72390413E-04
   78.6759796         1.74414978E-04
   78.8027725         1.76165893E-04
   78.9295654         1.77598238E-04
   79.0563583         1.78665010E-04
   79.1831512         1.79318216E-04
   79.3099442         1.79509196E-04
   79.4367371         1.79189869E-04
   79.5635300         1.78313494E-04
   79.6903229         1.76835834E-04
   79.8171158         1.74715824E-04
   79.9439087         1.71917069E-04
   80.0707016         1.68408384E-04
   80.1974945         1.64164754E-04
   80.3242874         1.59168296E-04
   80.4510803         1.53408677E-04
   80.5778732         1.46883729E-04
   80.7046585         1.39599622E-04
   80.8314514         1.31571069E-04
   80.9582443         1.22821381E-04
   81.0850372         1.13382222E-04
   81.2118301         1.03293234E-04
   81.3386230         9.26016364E-05
   81.4654160         8.13613879E-05
   81.5922089         6.96325587E-05
   81.7190018         5.74802689E-05
   81.8457947         4.49737636E-05
   81.9725876         3.21853549E-05
   82.0993805         1.91894633E-05
   82.2261734         6.06145477E-06
   82.3529663        -7.12337396E-06
   82.4797592        -2.02906340E-05
   82.6065521        -3.33679491E-05
   82.7333450        -4.62857097E-05
   82.8601379        -5.89779374E-05
   82.9869308        -7.13828849E-05
   83.1137238        -8.34437014E-05
   83.2405167        -9.51088077E-05
   83.3673096        -1.06332292E-04
   83.4941025        -1.17074109E-04
   83.6208954        -1.27300067E-04
   83.7476883        -1.36982228E-04
   83.8744812        -1.46098464E-04
   84.0012741        -1.54632624E-04
   84.1280670        -1.62574273E-04
   84.2548599        -1.69918392E-04
   84.3816528        -1.76665126E-04
   84.5084381        -1.82819349E-04
   84.6352310        -1.88390317E-04
   84.7620239        -1.93391112E-04
   84.8888168        -1.97838264E-04
   85.0156097        -2.01751463E-04
   85.1424026        -2.05152654E-04
   85.2691956        -2.08066136E-04
   85.3959885        -2.10517726E-04
   85.5227814        -2.12534535E-04
   85.6495743        -2.14144515E-04
   85.7763672        -2.15375927E-04
   85.9031601        -2.16257249E-04
   86.0299530        -2.16816625E-04
   86.1567459        -2.17081950E-04
   86.2835388        -2.17080160E-04
   86.4103317        -2.16837769E-04
   86.5371246        -2.16380227E-04
   86.6639175        -2.15732143E-04
   86.7907104        -2.14917178E-04
   86.9175034        -2.13958076E-04
   87.0442963        -2.12876796E-04
   87.1710892        -2.11694482E-04
   87.2978821        -2.10431695E-04
   87.4246750        -2.09108490E-04
   87.5514679        -2.07744612E-04
   87.6782608        -2.06359648E-04
   87.8050537        -2.04973054E-04
   87.9318466        -2.03604315E-04
   88.0586395        -2.02273033E-04
   88.1854324        -2.00998693E-04
   88.3122177        -1.99800852E-04
   88.4390106        -1.98698908E-04
   88.5658035        -1.97711677E-04
   88.6925964        -1.96857523E-04
   88.8193893        -1.96153851E-04
   88.9461823        -1.95616551E-04
   89.0729752        -1.95259694E-04
   89.1997681        -1.95095054E-04
   89.3265610        -1.95131302E-04
   89.4533539        -1.95373650E-04
   89.5801468        -1.95823042E-04
   89.7069397        -1.96475870E-04
   89.8337326        -1.97323519E-04
   89.9605255        -1.98351830E-04
   90.0873184        -1.99540882E-04
   90.2141113        -2.00865208E-04
   90.3409042        -2.02293493E-04
   90.4676971        -2.03788892E-04
   90.5944901        -2.05309479E-04
   90.7212830        -2.06808938E-04
   90.8480759        -2.08237427E-04
   90.9748688        -2.09542472E-04
   91.1016617        -2.10670376E-04
   91.2284546        -2.11567327E-04
   91.3552475        -2.12180967E-04
   91.4820404        -2.12461950E-04
   91.6088333        -2.12365077E-04
   91.7356262        -2.11851017E-04
   91.8624191        -2.10887563E-04
   91.9892120        -2.09450678E-04
   92.1159973        -2.07525547E-04
   92.2427902        -2.05107382E-04
   92.3695831        -2.02201671E-04
   92.4963760        -1.98824491E-04
   92.6231689        -1.95002140E-04
   92.7499619        -1.90770719E-04
   92.8767548        -1.86175064E-04
   93.0035477        -1.81267824E-04
   93.1303406        -1.76107817E-04
   93.2571335        -1.70758474E-04
   93.3839264        -1.65286037E-04
   93.5107193        -1.59757605E-04
   93.6375122        -1.54239184E-04
   93.7643051        -1.48793741E-04
   93.8910980        -1.43479410E-04
   94.0178909        -1.38347750E-04
   94.1446838        -1.33442256E-04
   94.2714767        -1.28797285E-04
   94.3982697        -1.24436978E-04
   94.5250626        -1.20374927E-04
   94.6518555        -1.16613948E-04
   94.7786484        -1.13146183E-04
   94.9054413        -1.09953915E-04
   95.0322342        -1.07010157E-04
   95.1590271        -1.04280138E-04
   95.2858200        -1.01722435E-04
   95.4126129        -9.92908972E-05
   95.5394058        -9.69362300E-05
   95.6661987        -9.46080108E-05
   95.7929916        -9.22565596E-05
   95.9197769        -8.98347207E-05
   96.0465698        -8.72997043E-05
   96.1733627        -8.46145340E-05
   96.3001556        -8.17494220E-05
   96.4269485        -7.86827295E-05
   96.5537415        -7.54017165E-05
   96.6805344        -7.19028976E-05
   96.8073273        -6.81921156E-05
   96.9341202        -6.42842788E-05
   97.0609131        -6.02027612E-05
   97.1877060        -5.59784676E-05
   97.3144989        -5.16487708E-05
   97.4412918        -4.72560860E-05
   97.5680847        -4.28463791E-05
   97.6948776        -3.84675077E-05
   97.8216705        -3.41675695E-05
   97.9484634        -2.99932672E-05
   98.0752563        -2.59884491E-05