  -4.50000000         0.00000000    
  -4.37320757         0.00000000    
  -4.24641466         0.00000000    
  -4.11962223         0.00000000    
  -3.99282932         0.00000000    
  -3.86603665         0.00000000    
  -3.73924398         0.00000000    
  -3.61245155         0.00000000    
  -3.48565888         0.00000000    
  -3.35886621         0.00000000    
  -3.23207355         0.00000000    
  -3.10528088         0.00000000    
  -2.97848821         0.00000000    
  -2.85169554         0.00000000    
  -2.72490287         0.00000000    
  -2.59811020         0.00000000    
  -2.47131753         0.00000000    
  -2.34452486         0.00000000    
  -2.21773219         0.00000000    
  -2.09093952         0.00000000    
  -1.96414697         0.00000000    
  -1.83735430         0.00000000    
  -1.71056163         0.00000000    
  -1.58376896         0.00000000    
  -1.45697629         0.00000000    
  -1.33018374         0.00000000    
  -1.20339108         0.00000000    
  -1.07659841         0.00000000    
 -0.949805737         0.00000000    
 -0.823013067         0.00000000    
 -0.696220458         0.00000000    
 -0.569427788         0.00000000    
 -0.442635119         0.00000000    
 -0.315842479         0.00000000    
 -0.189049825         0.00000000    
  -6.22571707E-02     0.00000000    
   6.45354837E-02     0.00000000    
  0.191328138         0.00000000    
  0.318120778         0.00000000    
  0.444913447         0.00000000    
  0.571706116         0.00000000    
  0.698498726         0.00000000    
  0.825291395         0.00000000    
  0.952084064         0.00000000    
   1.07887673         0.00000000    
   1.20566940         0.00000000    
   1.33246195         0.00000000    
   1.45925462         0.00000000    
   1.58604729         0.00000000    
   1.71283996         0.00000000    
   1.83963263         0.00000000    
   1.96642530         0.00000000    
   2.09321785         0.00000000    
   2.22001052         0.00000000    
   2.34680319         0.00000000    
   2.47359586         0.00000000    
   2.60038853         0.00000000    
   2.72718120         0.00000000    
   2.85397387         0.00000000    
   2.98076653         0.00000000    
   3.10755920         0.00000000    
   3.23435187         0.00000000    
   3.36114454         0.00000000    
   3.48793697         0.00000000    
   3.61472964         0.00000000    
   3.74152231         0.00000000    
   3.86831498         0.00000000    
   3.99510765         0.00000000    
   4.12190056         0.00000000    
   4.24869299         0.00000000    
   4.37548542         0.00000000    
   4.50227833         0.00000000    
   4.62907076         0.00000000    
   4.75586367         0.00000000    
   4.88265610         0.00000000    
   5.00944901         0.00000000    
   5.13624144         0.00000000    
   5.26303434         0.00000000    
   5.38982677         0.00000000    
   5.51661968         0.00000000    
   5.64341211         0.00000000    
   5.77020502         0.00000000    
   5.89699745         0.00000000    
   6.02379036         0.00000000    
   6.15058279         0.00000000    
   6.27737522         0.00000000    
   6.40416813         0.00000000    
   6.53096056         0.00000000    
   6.65775347         0.00000000    
   6.78454590         0.00000000    
   6.91133881         0.00000000    
   7.03813124         0.00000000    
   7.16492414         0.00000000    
   7.29171658         0.00000000    
   7.41850948         0.00000000    
   7.54530191         0.00000000    
   7.67209482         0.00000000    
   7.79888725         0.00000000    
   7.92567968         0.00000000    
   8.05247211         0.00000000    
   8.17926502         0.00000000    
   8.30605793         0.00000000    
   8.43285084         0.00000000    
   8.55964279         0.00000000    
   8.68643570         0.00000000    
   8.81322861         0.00000000    
   8.94002151         0.00000000    
   9.06681347         0.00000000    
   9.19360638         0.00000000    
   9.32039928         0.00000000    
   9.44719219         0.00000000    
   9.57398415         0.00000000    
   9.70077705         0.00000000    
   9.82756996         0.00000000    
   9.95436192         0.00000000    
   10.0811548         0.00000000    
   10.2079477         0.00000000    
   10.3347406         0.00000000    
   10.4615326         0.00000000    
   10.5883255         0.00000000    
   10.7151184         0.00000000    
   10.8419113         0.00000000    
   10.9687033         0.00000000    
   11.0954962         0.00000000    
   11.2222891         0.00000000    
   11.3490820         0.00000000    
   11.4758739         0.00000000    
   11.6026669         0.00000000    
   11.7294598         0.00000000    
   11.8562517         0.00000000    
   11.9830446         0.00000000    
   12.1098375         0.00000000    
   12.2366304         0.00000000    
   12.3634224         0.00000000    
   12.4902153         0.00000000    
   12.6170082         0.00000000    
   12.7438011         0.00000000    
   12.8705931         0.00000000    
   12.9973860         0.00000000    
   13.1241789         0.00000000    
   13.2509708         0.00000000    
   13.3777637         0.00000000    
   13.5045567         0.00000000    
   13.6313496         0.00000000    
   13.7581415         0.00000000    
   13.8849344         0.00000000    
   14.0117273         0.00000000    
   14.1385202         0.00000000    
   14.2653122         0.00000000    
   14.3921051         0.00000000    
   14.5188980         0.00000000    
   14.6456909         0.00000000    
   14.7724829         0.00000000    
   14.8992758         0.00000000    
   15.0260687         0.00000000    
   15.1528606         0.00000000    
   15.2796535         0.00000000    
   15.4064465         0.00000000    
   15.5332394         0.00000000    
   15.6600313         0.00000000    
   15.7868242         0.00000000    
   15.9136171         0.00000000    
   16.0404091         0.00000000    
   16.1672020         0.00000000    
   16.2939949         0.00000000    
   16.4207878         0.00000000    
   16.5475807         0.00000000    
   16.6743736         0.00000000    
   16.8011646         0.00000000    
   16.9279575         0.00000000    
   17.0547504         0.00000000    
   17.1815434         0.00000000    
   17.3083363         0.00000000    
   17.4351292         0.00000000    
   17.5619221         0.00000000    
   17.6887150         0.00000000    
   17.8155060         0.00000000    
   17.9422989         0.00000000    
   18.0690918         0.00000000    
   18.1958847         0.00000000    
   18.3226776         0.00000000    
   18.4494705         0.00000000    
   18.5762634         0.00000000    
   18.7030544         0.00000000    
   18.8298473         0.00000000    
   18.9566402         0.00000000    
   19.0834332         0.00000000    
   19.2102261         0.00000000    
   19.3370190         0.00000000    
   19.4638119         0.00000000    
   19.5906048         0.00000000    
   19.7173958         0.00000000    
   19.8441887         0.00000000    
   19.9709816         0.00000000    
   20.0977745         0.00000000    
   20.2245674         0.00000000    
   20.3513603         0.00000000    
   20.4781532         0.00000000    
   20.6049442         0.00000000    
   20.7317371         0.00000000    
   20.8585300         0.00000000    
   20.9853230         0.00000000    
   21.1121159         0.00000000    
   21.2389088         0.00000000    
   21.3657017         0.00000000    
   21.4924946         0.00000000    
   21.6192856         0.00000000    
   21.7460785         0.00000000    
   21.8728714         0.00000000    
   21.9996643         0.00000000    
   22.1264572         0.00000000    
   22.2532501         0.00000000    
   22.3800430         0.00000000    
   22.5068340         0.00000000    
   22.6336269         0.00000000    
   22.7604198         0.00000000    
   22.8872128         0.00000000    
   23.0140057         0.00000000    
   23.1407986         0.00000000    
   23.2675915         0.00000000    
   23.3943844         0.00000000    
   23.5211754         0.00000000    
   23.6479683         0.00000000    
   23.7747612         0.00000000    
   23.9015541         0.00000000    
   24.0283470         0.00000000    
   24.1551399         0.00000000    
   24.2819328         0.00000000    
   24.4087238         0.00000000    
   24.5355167         0.00000000    
   24.6623096         0.00000000    
   24.7891026         0.00000000    
   24.9158955         0.00000000    
   25.0426884         0.00000000    
   25.1694813         0.00000000    
   25.2962742         0.00000000    
   25.4230652         0.00000000    
   25.5498581         0.00000000    
   25.6766510         0.00000000    
   25.8034439         0.00000000    
   25.9302368         0.00000000    
   26.0570297         0.00000000    
   26.1838226         0.00000000    
   26.3106136         0.00000000    
   26.4374065         0.00000000    
   26.5641994         0.00000000    
   26.6909924         0.00000000    
   26.8177853         0.00000000    
   26.9445782         0.00000000    
   27.0713711         0.00000000    
   27.1981640         0.00000000    
   27.3249550         0.00000000    
   27.4517479         0.00000000    
   27.5785408         0.00000000    
   27.7053337         0.00000000    
   27.8321266         0.00000000    
   27.9589195         0.00000000    
   28.0857124         0.00000000    
   28.2125034         0.00000000    
   28.3392963         0.00000000    
   28.4660892         0.00000000    
   28.5928822         0.00000000    
   28.7196751         0.00000000    
   28.8464680         0.00000000    
   28.9732609         0.00000000    
   29.1000538         3.28719575E-33
   29.2268448         9.15179290E-33
   29.3536377         1.50165333E-32
   29.4804306         2.00515518E-32
   29.6072235         1.88704121E-32
   29.7340164         6.63858157E-33
   29.8608093        -1.64517002E-32
   29.9876022        -4.98363937E-32
   30.1143932        -7.74996902E-32
   30.2411861        -9.15841108E-32
   30.3679790        -7.16144072E-32
   30.4947720        -3.88424564E-32
   30.6215649        -3.07494217E-32
   30.7483578        -7.08882985E-32
   30.8751507        -1.00933905E-31
   31.0019417        -8.79452446E-32
   31.1287346        -1.94135537E-32
   31.2555275         8.93071077E-32
   31.3823204         2.85835981E-31
   31.5091133         5.50036423E-31
   31.6359062         8.56383276E-31
   31.7626991         1.11519431E-30
   31.8894920         1.25578325E-30
   32.0162849         1.30581981E-30
   32.1430779         1.39622285E-30
   32.2698708         1.22018740E-30
   32.3966637         6.97577421E-31
   32.5234528         6.40552780E-31
   32.6502457         1.29235833E-30
   32.7770386         1.63450515E-30
   32.9038315         5.11538607E-31
   33.0306244        -3.05181035E-30
   33.1574173        -2.55350607E-30
   33.2842102         2.14016652E-30
   33.4110031         9.54856055E-30
   33.5377960         1.36138481E-29
   33.6645889         1.67600984E-29
   33.7913818         1.28582606E-29
   33.9181747         2.72056977E-30
   34.0449677        -1.28584111E-29
   34.1717606        -3.16321054E-29
   34.2985535        -4.95284452E-29
   34.4253426        -7.12383010E-29
   34.5521355        -9.16613616E-29
   34.6789284        -1.04619777E-28
   34.8057213        -1.08240164E-28
   34.9325142        -1.01644070E-28
   35.0593071        -7.79074172E-29
   35.1861000        -2.91857320E-29
   35.3128929         4.99418732E-29
   35.4396858         1.54208091E-28
   35.5664787         2.82971735E-28
   35.6932716         4.29117847E-28
   35.8200645         5.82630449E-28
   35.9468575         7.31903212E-28
   36.0736504         8.62221021E-28
   36.2004433         9.55563142E-28
   36.3272324         9.97833934E-28
   36.4540253         9.79896785E-28
   36.5808182         8.86495539E-28
   36.7076111         7.10074482E-28
   36.8344040         4.42059182E-28
   36.9611969         7.82312262E-29
   37.0879898        -3.83997281E-28
   37.2147827        -9.46153626E-28
   37.3415756        -1.60052723E-27
   37.4683685        -2.33365740E-27
   37.5951614        -3.11885962E-27
   37.7219543        -3.91282019E-27
   37.8487473        -4.66156321E-27
   37.9755402        -5.30160520E-27
   38.1023293        -5.75070240E-27
   38.2291222        -5.91960145E-27
   38.3559151        -5.71651637E-27
   38.4827080        -5.04979640E-27
   38.6095009        -3.84107661E-27
   38.7362938        -2.03343651E-27
   38.8630867         4.01878337E-28
   38.9898796         3.44827780E-27
   39.1166725         7.03681646E-27
   39.2434654         1.10426675E-26
   39.3702583         1.52765518E-26
   39.4970512         1.94846980E-26
   39.6238441         2.33597830E-26
   39.7506371         2.65430710E-26
   39.8774300         2.86423531E-26
   40.0042191         2.92483585E-26
   40.1310120         2.79606355E-26
   40.2578049         2.44130156E-26
   40.3845978         1.83073801E-26
   40.5113907         9.45055133E-27
   40.6381836        -2.20813319E-27
   40.7649765        -1.65383009E-26
   40.8917694        -3.31946321E-26
   41.0185623        -5.15884371E-26
   41.1453552        -7.08696614E-26
   41.2721481        -8.99237953E-26
   41.3989410        -1.07386082E-25
   41.5257339        -1.21678220E-25
   41.6525269        -1.31065554E-25
   41.7793198        -1.33744205E-25
   41.9061089        -1.27950367E-25
   42.0329018        -1.12093486E-25
   42.1596947        -8.49077493E-26
   42.2864876        -4.56161684E-26
   42.4132805         5.90438853E-27
   42.5400734         6.89652094E-26
   42.6668663         1.41930658E-25
   42.7936592         2.22118382E-25
   42.9204521         3.05749495E-25
   43.0472450         3.87963494E-25
   43.1740379         4.62909594E-25
   43.3008308         5.23924928E-25
   43.4276237         5.63806482E-25
   43.5544167         5.75177271E-25
   43.6812096         5.50942724E-25
   43.8079987         4.84826172E-25
   43.9347916         3.71963226E-25
   44.0615845         2.09530726E-25
   44.1883774        -2.62991550E-27
   44.3151703        -2.61430920E-25
   44.4419632        -5.60053328E-25
   44.5687561        -8.87603216E-25
   44.6955490        -1.22896729E-24
   44.8223419        -1.56491623E-24
   44.9491348        -1.87249803E-24
   45.0759277        -2.12575729E-24
   45.2027206        -2.29679535E-24
   45.3295135        -2.35717456E-24
   45.4563065        -2.27964176E-24
   45.5830994        -2.04012210E-24
   45.7098885        -1.61990822E-24
   45.8366814        -1.00794769E-24
   45.9634743        -2.03091661E-25
   46.0902672         7.83842320E-25
   46.2170601         1.92835589E-24
   46.3438530         3.19108653E-24
   46.4706459         4.51733979E-24
   46.5974388         5.83746933E-24
   46.7242317         7.06829863E-24
   46.8510246         8.11562271E-24
   46.9778175         8.87791478E-24
   47.1046104         9.25115485E-24
   47.2314034         9.13475527E-24
   47.3581963         8.43837884E-24
   47.4849892         7.08940934E-24
   47.6117783         5.04075216E-24
   47.7385712         2.27848549E-24
   47.8653641        -1.17100160E-24
   47.9921570        -5.23509199E-24
   48.1189499        -9.79065761E-24
   48.2457428        -1.46619897E-23
   48.3725357        -1.96216276E-23
   48.4993286        -2.43942235E-23
   48.6261215        -2.86640877E-23
   48.7529144        -3.20863399E-23
   48.8797073        -3.43018463E-23
   49.0065002        -3.49554680E-23
   49.1332932        -3.37174392E-23
   49.2600861        -3.03068685E-23
   49.3868790        -2.45165458E-23
   49.5136681        -1.62378119E-23
   49.6404610        -5.48393658E-24
   49.7672539         7.58925922E-24
   49.8940468         2.26675663E-23
   50.0208397         3.92687196E-23
   50.1476326         5.67403983E-23
   50.2744255         7.42678148E-23
   50.4012184         9.08908685E-23
   50.5280113         1.05533055E-22
   50.6548042         1.17040554E-22
   50.7815971         1.24232643E-22
   50.9083900         1.25961359E-22
   51.0351830         1.21178943E-22
   51.1619759         1.09010871E-22
   51.2887688         8.88310517E-23
   51.4155579         6.03357928E-23
   51.5423508         2.36122272E-23
   51.6691437        -2.08030004E-23
   51.7959366        -7.18797120E-23
   51.9227295        -1.28068577E-22
   52.0495224        -1.87299219E-22
   52.1763153        -2.47003305E-22
   52.3031082        -3.04169139E-22
   52.4299011        -3.55424297E-22
   52.5566940        -3.97151455E-22
   52.6834869        -4.25632135E-22
   52.8102798        -4.37219076E-22
   52.9370728        -4.28529237E-22
   53.0638657        -3.96654207E-22
   53.1906586        -3.39377806E-22
   53.3174477        -2.55393150E-22
   53.4442406        -1.44507782E-22
   53.5710335        -7.82517675E-24
   53.6978264         1.52107693E-22
   53.8246193         3.31200436E-22
   53.9514122         5.23777539E-22
   54.0782051         7.22605172E-22
   54.2049980         9.18994833E-22
   54.3317909         1.10299082E-21
   54.4585838         1.26364592E-21
   54.5853767         1.38938171E-21
   54.7121696         1.46843734E-21
   54.8389626         1.48939150E-21
   54.9657555         1.44175188E-21
   55.0925484         1.31659012E-21
   55.2193375         1.10720841E-21
   55.3461304         8.09805730E-22
   55.4729233         4.24117876E-22
   55.5997162        -4.59975738E-23
   55.7265091        -5.92079212E-22
   55.8533020        -1.20069719E-21
   55.9800949        -1.85327110E-21
   56.1068878        -2.52607893E-21
   56.2336807        -3.19051115E-21
   56.3604736        -3.81358656E-21
   56.4872665        -4.35875634E-21
   56.6140594        -4.78701255E-21
   56.7408524        -5.05829305E-21
   56.8676453        -5.13318642E-21
   56.9944382        -4.97489766E-21
   57.1212273        -4.55143894E-21
   57.2480202        -3.83797991E-21
   57.3748131        -2.81927528E-21
   57.5016060        -1.49207974E-21
   57.6283989         1.32588257E-22
   57.7551918         2.02746088E-21
   57.8819847         4.14744320E-21
   58.0087776         6.42862962E-21
   58.1355705         8.78807507E-21
   58.2623634         1.11244023E-20
   58.3891563         1.33195159E-20
   58.5159492         1.52413989E-20
   58.6427422         1.67481553E-20
   58.7695351         1.76932737E-20
   58.8963280         1.79321383E-20
   59.0231171         1.73295986E-20
   59.1499100         1.57685133E-20
   59.2767029         1.31589483E-20
   59.4034958         9.44766275E-21
   59.5302887         4.62748786E-21
   59.6570816        -1.25394583E-21
   59.7838745        -8.08670912E-21
   59.9106674        -1.56929297E-20
   60.0374603        -2.38236498E-20
   60.1642532        -3.21589017E-20
   60.2910461        -4.03113805E-20
   60.4178391        -4.78344880E-20
   60.5446320        -5.42349176E-20
   60.6714249        -5.89900752E-20
   60.7982178        -6.15700515E-20
   60.9250069        -6.14642241E-20
   61.0517998        -5.82114656E-20
   61.1785927        -5.14332245E-20
   61.3053856        -4.08681991E-20
   61.4321785        -2.64068444E-20
   61.5589714        -8.12402110E-21
   61.6857643         1.36925533E-20
   61.8125572         3.85199820E-20
   61.9393501         6.55868923E-20
   62.0661430         9.38709439E-20
   62.1929359         1.22109333E-19
   62.3197289         1.48824320E-19
   62.4465218         1.72364549E-19
   62.5733147         1.90963020E-19
   62.7001076         2.02811296E-19
   62.8268967         2.06148763E-19
   62.9536896         1.99364422E-19
   63.0804825         1.81108494E-19
   63.2072754         1.50408370E-19
   63.3340683         1.06784371E-19
   63.4608612         5.03580351E-20
   63.5876541        -1.80532120E-20
   63.7144470        -9.68633861E-20
   63.8412399        -1.83674563E-19
   63.9680328        -2.75269991E-19
   64.0948257        -3.67649445E-19
   64.2216187        -4.56113594E-19
   64.3484116        -5.35399372E-19
   64.4752045        -5.99866727E-19
   64.6019974        -6.43737647E-19
   64.7287903        -6.61380065E-19
   64.8555832        -6.47630152E-19
   64.9823761        -5.98140660E-19
   65.1091690        -5.09742763E-19
   65.2359619        -3.80800841E-19
   65.3627548        -2.11542472E-19
   65.4895477        -4.34062824E-21
   65.6163330         2.36072410E-19
   65.7431259         5.02486269E-19
   65.8699188         7.85203161E-19
   65.9967117         1.07216339E-18
   66.1235046         1.34920995E-18
   66.2502975         1.60051084E-18
   66.3770905         1.80912982E-18
   66.5038834         1.95774398E-18
   66.6306763         2.02949156E-18
   66.7574692         2.00891834E-18
   66.8842621         1.88299994E-18
   67.0110550         1.64217892E-18
   67.1378479         1.28138394E-18
   67.2646408         8.00955523E-19
   67.3914337         2.07429174E-19
   67.5182266        -4.85888115E-19
   67.6450195        -1.25862034E-18
   67.7718124        -2.08334019E-18
   67.8986053        -2.92596199E-18
   68.0253983        -3.74653426E-18
   68.1521912        -4.50045562E-18
   68.2789841        -5.14009743E-18
   68.4057770        -5.61681403E-18
   68.5325699        -5.88329398E-18
   68.6593628        -5.89615995E-18
   68.7861557        -5.61873515E-18
   68.9129486        -5.02385374E-18
   69.0397415        -4.09654457E-18
   69.1665344        -2.83648607E-18
   69.2933273        -1.26001910E-18
   69.4201126         5.98403910E-19
   69.5469055         2.68551630E-18
   69.6736984         4.92938434E-18
   69.8004913         7.24055923E-18
   69.9272842         9.51422313E-18
   70.0540771         1.16334532E-17
   70.1808701         1.34735099E-17
   70.3076630         1.49070553E-17
   70.4344559         1.58102256E-17
   70.5612488         1.60692937E-17
   70.6880417         1.55876396E-17
   70.8148346         1.42928075E-17
   70.9416275         1.21431785E-17
   71.0684204         9.13397482E-18
   71.1952133         5.30211275E-18
   71.3220062         7.29607473E-19
   71.4487991        -4.45490361E-18
   71.5755920        -1.00767771E-17
   71.7023849        -1.59183812E-17
   71.8291779        -2.17246398E-17
   71.9559708        -2.72111022E-17
   72.0827637        -3.20745106E-17
   72.2095566        -3.60055376E-17
   72.3363495        -3.87033970E-17
   72.4631424        -3.98916486E-17
   72.5899353        -3.93348568E-17
   72.7167282        -3.68549660E-17
   72.8435211        -3.23468184E-17
   72.9703140        -2.57918174E-17
   73.0971069        -1.72688892E-17
   73.2238922        -6.96176048E-18
   73.3506851         4.83808883E-18
   73.4774780         1.77335298E-17
   73.6042709         3.12294000E-17
   73.7310638         4.47458786E-17
   73.8578568         5.76375613E-17
   73.9846497         6.92179707E-17
   74.1114426         7.87887945E-17
   74.2382355         8.56731011E-17
   74.3650284         8.92509683E-17
   74.4918213         8.89963820E-17
   74.6186142         8.45132814E-17
   74.7454071         7.55693877E-17
   74.8722000         6.21253271E-17
   74.9989929         4.43572923E-17
   75.1257858         2.26715300E-17
   75.2525787        -2.29110356E-18
   75.3793716        -2.96618762E-17
   75.5061646        -5.83628928E-17
   75.6329575        -8.71383292E-17
   75.7597504        -1.14597814E-16
   75.8865433        -1.39271116E-16
   76.0133362        -1.59672738E-16
   76.1401291        -1.74373922E-16
   76.2669220        -1.82079605E-16
   76.3937149        -1.81706898E-16
   76.5205078        -1.72460752E-16
   76.6473007        -1.53903782E-16
   76.7740936        -1.26015421E-16
   76.9008865        -8.92362445E-17
   77.0276718        -4.44941345E-17
   77.1544647         6.79118798E-18
   77.2812576         6.27276602E-17
   77.4080505         1.20996102E-16
   77.5348434         1.78921258E-16
   77.6616364         2.33568171E-16
   77.7884293         2.81861463E-16
   77.9152222         3.20724102E-16
   78.0420151         3.47231125E-16
   78.1688080         3.58770493E-16
   78.2956009         3.53207074E-16
   78.4223938         3.29038895E-16
   78.5491867         2.85537903E-16
   78.6759796         2.22868847E-16
   78.8027725         1.42173858E-16
   78.9295654         4.56199769E-17
   79.0563583        -6.36006004E-17
   79.1831512        -1.81319949E-16
   79.3099442        -3.02497250E-16
   79.4367371        -4.21375624E-16
   79.5635300        -5.31689251E-16
   79.6903229        -6.26918625E-16
   79.8171158        -7.00583227E-16
   79.9439087        -7.46563881E-16
   80.0707016        -7.59440900E-16
   80.1974945        -7.34832581E-16
   80.3242874        -6.69720099E-16
   80.4510803        -5.62739732E-16
   80.5778732        -4.14425137E-16
   80.7046585        -2.27384909E-16
   80.8314514        -6.39835371E-18
   80.9582443         2.41581949E-16
   81.0850372         5.07530336E-16
   81.2118301         7.80558066E-16
   81.3386230         1.04823069E-15
   81.4654160         1.29699358E-15
   81.5922089         1.51268999E-15
   81.7190018         1.68116283E-15
   81.8457947         1.78891601E-15
   81.9725876         1.82381271E-15
   82.0993805         1.77577969E-15
   82.2261734         1.63749098E-15
   82.3529663         1.40498890E-15
   82.4797592         1.07821640E-15
   82.6065521         6.61423729E-16
   82.7333450         1.63420541E-16
   82.8601379        -4.02354917E-16
   82.9869308        -1.01796547E-15
   83.1137238        -1.66132108E-15
   83.2405167        -2.30674071E-15
   83.3673096        -2.92573100E-15
   83.4941025        -3.48796330E-15
   83.6208954        -3.96242055E-15
   83.7476883        -4.31868769E-15
   83.8744812        -4.52833597E-15
   84.0012741        -4.56634572E-15
   84.1280670        -4.41252073E-15
   84.2548599        -4.05282141E-15
   84.3816528        -3.48055240E-15
   84.5084381        -2.69734974E-15
   84.6352310        -1.71389790E-15
   84.7620239        -5.50333611E-16
   84.8888168         7.63721751E-16
   85.0156097         2.18951728E-15
   85.1424026         3.67994565E-15
   85.2691956         5.18073091E-15
   85.3959885         6.63201133E-15
   85.5227814         7.97029120E-15
   85.6495743         9.13071193E-15
   85.7763672         1.00495538E-14
   85.9031601         1.06669222E-14
   86.0299530         1.09294728E-14
   86.1567459         1.07931191E-14
   86.2835388         1.02255647E-14
   86.4103317         9.20858814E-15
   86.5371246         7.73991348E-15
   86.6639175         5.83464119E-15
   86.7907104         3.52604781E-15
   86.9175034         8.65777363E-16
   87.0442963        -2.07670477E-15
   87.1710892        -5.21537498E-15
   87.2978821        -8.44967542E-15
   87.4246750        -1.16672232E-14
   87.5514679        -1.47472011E-14
   87.6782608        -1.75643022E-14
   87.8050537        -1.99931217E-14
   87.9318466        -2.19128728E-14
   88.0586395        -2.32122705E-14
   88.1854324        -2.37943396E-14
   88.3122177        -2.35810652E-14
   88.4390106        -2.25176120E-14
   88.5658035        -2.05759617E-14
   88.6925964        -1.77577696E-14
   88.8193893        -1.40963477E-14
   88.9461823        -9.65755711E-15
   89.0729752        -4.53954603E-15
   89.1997681         1.12865711E-15
   89.3265610         7.18984351E-15
   89.4533539         1.34624655E-14
   89.5801468         1.97456102E-14
   89.7069397         2.58249825E-14
   89.8337326         3.14796915E-14
   89.9605255         3.64897050E-14
   90.0873184         4.06436156E-14
   90.2141113         4.37466191E-14
   90.3409042         4.56282452E-14
   90.4676971         4.61496889E-14
   90.5944901         4.52103666E-14
   90.7212830         4.27534900E-14
   90.8480759         3.87702769E-14
   90.9748688         3.33027774E-14
   91.1016617         2.64449971E-14
   91.2284546         1.83421902E-14
   91.3552475         9.18841521E-15
   91.4820404        -7.77829032E-16
   91.6088333        -1.12796972E-14
   91.7356262        -2.20096599E-14
   91.8624191        -3.26386799E-14
   91.9892120        -4.28263856E-14
   92.1159973        -5.22321715E-14
   92.2427902        -6.05267179E-14
   92.3695831        -6.74034803E-14
   92.4963760        -7.25899579E-14
   92.6231689        -7.58580481E-14
   92.7499619        -7.70332555E-14
   92.8767548        -7.60023690E-14
   93.0035477        -7.27190931E-14
   93.1303406        -6.72077072E-14
   93.2571335        -5.95641361E-14
   93.3839264        -4.99546117E-14
   93.5107193        -3.86117834E-14
   93.6375122        -2.58283283E-14
   93.7643051        -1.19482645E-14
   93.8910980         2.64381620E-15
   94.0178909         1.75351761E-14
   94.1446838         3.22986978E-14
   94.2714767         4.65073977E-14
   94.3982697         5.97492230E-14
   94.5250626         7.16414639E-14
   94.6518555         8.18443281E-14
   94.7786484         9.00729822E-14
   94.9054413         9.61076108E-14
   95.0322342         9.98010810E-14
   95.1590271         1.01083665E-13
   95.2858200         9.99646804E-14
   95.4126129         9.65309850E-14
   95.5394058         9.09420515E-14
   95.6661987         8.34219778E-14
   95.7929916         7.42486449E-14
   95.9197769         6.37404016E-14
   96.0465698         5.22408451E-14
   96.1733627         4.01023480E-14
   96.3001556         2.76691291E-14
   96.4269485         1.52606504E-14
   96.5537415         3.15601427E-15
   96.6805344        -8.41944736E-15
   96.8073273        -1.93049888E-14
   96.9341202        -2.94117114E-14
   97.0609131        -3.87258314E-14
   97.1877060        -4.73075016E-14
   97.3144989        -5.52850375E-14
   97.4412918        -6.28443695E-14
   97.5680847        -7.02141795E-14
   97.6948776        -7.76471173E-14
   97.8216705        -8.53976856E-14
   97.9484634        -9.36979240E-14
   98.0752563        -1.02731876E-13