  -4.50000000         0.00000000    
  -4.37320757         0.00000000    
  -4.24641466         0.00000000    
  -4.11962223         0.00000000    
  -3.99282932         0.00000000    
  -3.86603665         0.00000000    
  -3.73924398         0.00000000    
  -3.61245155         0.00000000    
  -3.48565888         0.00000000    
  -3.35886621         0.00000000    
  -3.23207355         0.00000000    
  -3.10528088         0.00000000    
  -2.97848821         0.00000000    
  -2.85169554         0.00000000    
  -2.72490287         0.00000000    
  -2.59811020         0.00000000    
  -2.47131753         0.00000000    
  -2.34452486         0.00000000    
  -2.21773219         0.00000000    
  -2.09093952         0.00000000    
  -1.96414697         0.00000000    
  -1.83735430         0.00000000    
  -1.71056163         0.00000000    
  -1.58376896         0.00000000    
  -1.45697629         0.00000000    
  -1.33018374         0.00000000    
  -1.20339108         0.00000000    
  -1.07659841         0.00000000    
 -0.949805737         0.00000000    
 -0.823013067         0.00000000    
 -0.696220458         0.00000000    
 -0.569427788         0.00000000    
 -0.442635119         0.00000000    
 -0.315842479         0.00000000    
 -0.189049825         0.00000000    
  -6.22571707E-02     0.00000000    
   6.45354837E-02     0.00000000    
  0.191328138         0.00000000    
  0.318120778         0.00000000    
  0.444913447         0.00000000    
  0.571706116         0.00000000    
  0.698498726         0.00000000    
  0.825291395         0.00000000    
  0.952084064         0.00000000    
   1.07887673         0.00000000    
   1.20566940         0.00000000    
   1.33246195         0.00000000    
   1.45925462         0.00000000    
   1.58604729         0.00000000    
   1.71283996         0.00000000    
   1.83963263         0.00000000    
   1.96642530         0.00000000    
   2.09321785         0.00000000    
   2.22001052         0.00000000    
   2.34680319         0.00000000    
   2.47359586         0.00000000    
   2.60038853         0.00000000    
   2.72718120         0.00000000    
   2.85397387         0.00000000    
   2.98076653         0.00000000    
   3.10755920         0.00000000    
   3.23435187         0.00000000    
   3.36114454         0.00000000    
   3.48793697         0.00000000    
   3.61472964         0.00000000    
   3.74152231         0.00000000    
   3.86831498         0.00000000    
   3.99510765         0.00000000    
   4.12190056         0.00000000    
   4.24869299         0.00000000    
   4.37548542         0.00000000    
   4.50227833         0.00000000    
   4.62907076         0.00000000    
   4.75586367         0.00000000    
   4.88265610         0.00000000    
   5.00944901         0.00000000    
   5.13624144         0.00000000    
   5.26303434         0.00000000    
   5.38982677         0.00000000    
   5.51661968         0.00000000    
   5.64341211         0.00000000    
   5.77020502         0.00000000    
   5.89699745         0.00000000    
   6.02379036         0.00000000    
   6.15058279         0.00000000    
   6.27737522         0.00000000    
   6.40416813         0.00000000    
   6.53096056         0.00000000    
   6.65775347         0.00000000    
   6.78454590         0.00000000    
   6.91133881         0.00000000    
   7.03813124         0.00000000    
   7.16492414         0.00000000    
   7.29171658         0.00000000    
   7.41850948         0.00000000    
   7.54530191         0.00000000    
   7.67209482         0.00000000    
   7.79888725         0.00000000    
   7.92567968         0.00000000    
   8.05247211         0.00000000    
   8.17926502         0.00000000    
   8.30605793         0.00000000    
   8.43285084         0.00000000    
   8.55964279         0.00000000    
   8.68643570         0.00000000    
   8.81322861         0.00000000    
   8.94002151         0.00000000    
   9.06681347         0.00000000    
   9.19360638         0.00000000    
   9.32039928         0.00000000    
   9.44719219         0.00000000    
   9.57398415         0.00000000    
   9.70077705         0.00000000    
   9.82756996         0.00000000    
   9.95436192         0.00000000    
   10.0811548         0.00000000    
   10.2079477         0.00000000    
   10.3347406         0.00000000    
   10.4615326         0.00000000    
   10.5883255         0.00000000    
   10.7151184         0.00000000    
   10.8419113         0.00000000    
   10.9687033         0.00000000    
   11.0954962         0.00000000    
   11.2222891         0.00000000    
   11.3490820         0.00000000    
   11.4758739         0.00000000    
   11.6026669         0.00000000    
   11.7294598         0.00000000    
   11.8562517         0.00000000    
   11.9830446         0.00000000    
   12.1098375         0.00000000    
   12.2366304         0.00000000    
   12.3634224         0.00000000    
   12.4902153         0.00000000    
   12.6170082         0.00000000    
   12.7438011         0.00000000    
   12.8705931         0.00000000    
   12.9973860         0.00000000    
   13.1241789         0.00000000    
   13.2509708         0.00000000    
   13.3777637         0.00000000    
   13.5045567         0.00000000    
   13.6313496         0.00000000    
   13.7581415         0.00000000    
   13.8849344         0.00000000    
   14.0117273         0.00000000    
   14.1385202         0.00000000    
   14.2653122         0.00000000    
   14.3921051         0.00000000    
   14.5188980         0.00000000    
   14.6456909         0.00000000    
   14.7724829         0.00000000    
   14.8992758         0.00000000    
   15.0260687         0.00000000    
   15.1528606         0.00000000    
   15.2796535         0.00000000    
   15.4064465         0.00000000    
   15.5332394         0.00000000    
   15.6600313         0.00000000    
   15.7868242         0.00000000    
   15.9136171         0.00000000    
   16.0404091         0.00000000    
   16.1672020         0.00000000    
   16.2939949         0.00000000    
   16.4207878         0.00000000    
   16.5475807         0.00000000    
   16.6743736         0.00000000    
   16.8011646         0.00000000    
   16.9279575         0.00000000    
   17.0547504         0.00000000    
   17.1815434         0.00000000    
   17.3083363         0.00000000    
   17.4351292         0.00000000    
   17.5619221         0.00000000    
   17.6887150         0.00000000    
   17.8155060         0.00000000    
   17.9422989         0.00000000    
   18.0690918         0.00000000    
   18.1958847         0.00000000    
   18.3226776         0.00000000    
   18.4494705         0.00000000    
   18.5762634         0.00000000    
   18.7030544         0.00000000    
   18.8298473         0.00000000    
   18.9566402         0.00000000    
   19.0834332         0.00000000    
   19.2102261         0.00000000    
   19.3370190         0.00000000    
   19.4638119         0.00000000    
   19.5906048         0.00000000    
   19.7173958         0.00000000    
   19.8441887         0.00000000    
   19.9709816         0.00000000    
   20.0977745         0.00000000    
   20.2245674         0.00000000    
   20.3513603         0.00000000    
   20.4781532         0.00000000    
   20.6049442         0.00000000    
   20.7317371         0.00000000    
   20.8585300         0.00000000    
   20.9853230         0.00000000    
   21.1121159         0.00000000    
   21.2389088         0.00000000    
   21.3657017         0.00000000    
   21.4924946         0.00000000    
   21.6192856         0.00000000    
   21.7460785         0.00000000    
   21.8728714         0.00000000    
   21.9996643         0.00000000    
   22.1264572         0.00000000    
   22.2532501         0.00000000    
   22.3800430         0.00000000    
   22.5068340         0.00000000    
   22.6336269         0.00000000    
   22.7604198         0.00000000    
   22.8872128         0.00000000    
   23.0140057         0.00000000    
   23.1407986         0.00000000    
   23.2675915         0.00000000    
   23.3943844         0.00000000    
   23.5211754         0.00000000    
   23.6479683         0.00000000    
   23.7747612         0.00000000    
   23.9015541         0.00000000    
   24.0283470         0.00000000    
   24.1551399         0.00000000    
   24.2819328         0.00000000    
   24.4087238         0.00000000    
   24.5355167         0.00000000    
   24.6623096         0.00000000    
   24.7891026         0.00000000    
   24.9158955         0.00000000    
   25.0426884         0.00000000    
   25.1694813         0.00000000    
   25.2962742         0.00000000    
   25.4230652         0.00000000    
   25.5498581         0.00000000    
   25.6766510         0.00000000    
   25.8034439         0.00000000    
   25.9302368         0.00000000    
   26.0570297         0.00000000    
   26.1838226         0.00000000    
   26.3106136         0.00000000    
   26.4374065         0.00000000    
   26.5641994         0.00000000    
   26.6909924         0.00000000    
   26.8177853         0.00000000    
   26.9445782         0.00000000    
   27.0713711         0.00000000    
   27.1981640         0.00000000    
   27.3249550         0.00000000    
   27.4517479         0.00000000    
   27.5785408         0.00000000    
   27.7053337         0.00000000    
   27.8321266         0.00000000    
   27.9589195         0.00000000    
   28.0857124         0.00000000    
   28.2125034         0.00000000    
   28.3392963         0.00000000    
   28.4660892         0.00000000    
   28.5928822         0.00000000    
   28.7196751         0.00000000    
   28.8464680         0.00000000    
   28.9732609         0.00000000    
   29.1000538        -3.98760745E-33
   29.2268448        -1.11016052E-32
   29.3536377        -1.82155236E-32
   29.4804306        -2.43226488E-32
   29.6072235        -2.28888734E-32
   29.7340164        -1.11539213E-32
   29.8608093         9.81389597E-33
   29.9876022         3.83223207E-32
   30.1143932         3.64360373E-32
   30.2411861         1.19734376E-33
   30.3679790        -4.12366974E-32
   30.4947720        -6.48349434E-32
   30.6215649        -3.42010463E-32
   30.7483578         1.51768017E-32
   30.8751507         6.85939334E-32
   31.0019417         7.15781785E-32
   31.1287346         8.46962958E-32
   31.2555275         1.16608064E-31
   31.3823204         1.81900169E-31
   31.5091133         2.82219384E-31
   31.6359062         3.65973968E-31
   31.7626991         3.05049647E-31
   31.8894920         8.98107365E-32
   32.0162849        -1.46479985E-31
   32.1430779        -4.91571331E-31
   32.2698708        -5.76794530E-31
   32.3966637        -5.09380823E-31
   32.5234528        -1.30838700E-30
   32.6502457        -2.97885785E-30
   32.7770386        -3.23784446E-30
   32.9038315        -1.61087150E-30
   33.0306244        -3.89696126E-32
   33.1574173        -3.72469811E-30
   33.2842102        -1.01445697E-29
   33.4110031        -1.55369027E-29
   33.5377960        -1.80845138E-29
   33.6645889        -2.12826498E-29
   33.7913818        -1.72243829E-29
   33.9181747        -2.13249082E-30
   34.0449677         2.87401651E-29
   34.1717606         7.89095688E-29
   34.2985535         1.45764971E-28
   34.4253426         2.22138228E-28
   34.5521355         3.07595520E-28
   34.6789284         3.90964477E-28
   34.8057213         4.63014311E-28
   34.9325142         5.19075820E-28
   35.0593071         5.50610419E-28
   35.1861000         5.45089741E-28
   35.3128929         5.00818823E-28
   35.4396858         4.11259806E-28
   35.5664787         2.75606281E-28
   35.6932716         8.39453099E-29
   35.8200645        -1.69380086E-28
   35.9468575        -4.93724901E-28
   36.0736504        -8.92361536E-28
   36.2004433        -1.35757194E-27
   36.3272324        -1.87151087E-27
   36.4540253        -2.39420864E-27
   36.5808182        -2.88929994E-27
   36.7076111        -3.30616613E-27
   36.8344040        -3.58341183E-27
   36.9611969        -3.66121324E-27
   37.0879898        -3.48298884E-27
   37.2147827        -2.99872935E-27
   37.3415756        -2.15886270E-27
   37.4683685        -9.26429022E-28
   37.5951614         7.20836867E-28
   37.7219543         2.78938385E-27
   37.8487473         5.25098521E-27
   37.9755402         8.03532408E-27
   38.1023293         1.10303316E-26
   38.2291222         1.40788591E-26
   38.3559151         1.69764115E-26
   38.4827080         1.94784318E-26
   38.6095009         2.13064921E-26
   38.7362938         2.21642551E-26
   38.8630867         2.17518934E-26
   38.9898796         1.97728818E-26
   39.1166725         1.59575175E-26
   39.2434654         1.00808219E-26
   39.3702583         1.99379220E-27
   39.4970512        -8.34638719E-27
   39.6238441        -2.08335007E-26
   39.7506371        -3.51839513E-26
   39.8774300        -5.09072927E-26
   40.0042191        -6.72938966E-26
   40.1310120        -8.34140782E-26
   40.2578049        -9.81307221E-26
   40.3845978        -1.10132070E-25
   40.5113907        -1.17974543E-25
   40.6381836        -1.20138696E-25
   40.7649765        -1.15103471E-25
   40.8917694        -1.01438786E-25
   41.0185623        -7.79183061E-26
   41.1453552        -4.36506229E-26
   41.2721481         1.77780147E-27
   41.3989410         5.81558305E-26
   41.5257339         1.24509380E-25
   41.6525269         1.98988327E-25
   41.7793198         2.78785071E-25
   41.9061089         3.60101741E-25
   42.0329018         4.38172395E-25
   42.1596947         5.07347805E-25
   42.2864876         5.61250770E-25
   42.4132805         5.93004936E-25
   42.5400734         5.95544032E-25
   42.6668663         5.62008372E-25
   42.7936592         4.86209735E-25
   42.9204521         3.63169300E-25
   43.0472450         1.89701252E-25
   43.1740379        -3.49876821E-26
   43.3008308        -3.08720099E-25
   43.4276237        -6.25833431E-25
   43.5544167        -9.76776743E-25
   43.6812096        -1.34786135E-24
   43.8079987        -1.72121048E-24
   43.9347916        -2.07494478E-24
   44.0615845        -2.38364459E-24
   44.1883774        -2.61911366E-24
   44.3151703        -2.75146480E-24
   44.4419632        -2.75053571E-24
   44.5687561        -2.58762470E-24
   44.6955490        -2.23749707E-24
   44.8223419        -1.68060682E-24
   44.9491348        -9.05439460E-25
   45.0759277         8.91525852E-26
   45.2027206         1.29174849E-24
   45.3295135         2.67645537E-24
   45.4563065         4.20147121E-24
   45.5830994         5.80827832E-24
   45.7098885         7.42163653E-24
   45.8366814         8.95053258E-24
   45.9634743         1.02902085E-23
   46.0902672         1.13253920E-23
   46.2170601         1.19347476E-23
   46.3438530         1.19965565E-23
   46.4706459         1.13955438E-23
   46.5974388         1.00306614E-23
   46.7242317         7.82358640E-24
   46.8510246         4.72758385E-24
   46.9778175         7.36305907E-25
   47.1046104        -4.10798883E-24
   47.2314034        -9.70731683E-24
   47.3581963        -1.59026139E-23
   47.4849892        -2.24706792E-23
   47.6117783        -2.91241009E-23
   47.7385712        -3.55146473E-23
   47.8653641        -4.12406542E-23
   47.9921570        -4.58587059E-23
   48.1189499        -4.88997899E-23
   48.2457428        -4.98899081E-23
   48.3725357        -4.83747903E-23
   48.4993286        -4.39482078E-23
   48.6261215        -3.62828969E-23
   48.7529144        -2.51630962E-23
   48.8797073        -1.05171267E-23
   49.0065002         7.55165895E-24
   49.1332932         2.87375401E-23
   49.2600861         5.25106934E-23
   49.3868790         7.81033259E-23
   49.5136681         1.04505819E-22
   49.6404610         1.30474943E-22
   49.7672539         1.54555724E-22
   49.8940468         1.75118727E-22
   50.0208397         1.90413062E-22
   50.1476326         1.98635681E-22
   50.2744255         1.98016040E-22
   50.4012184         1.86914748E-22
   50.5280113         1.63933109E-22
   50.6548042         1.28030850E-22
   50.7815971         7.86461064E-23
   50.9083900         1.58131981E-23
   51.0351830        -5.97289064E-23
   51.1619759        -1.46444946E-22
   51.2887688        -2.41935966E-22
   51.4155579        -3.42903699E-22
   51.5423508        -4.45155547E-22
   51.6691437        -5.43655622E-22
   51.7959366        -6.32629388E-22
   51.9227295        -7.05725114E-22
   52.0495224        -7.56233921E-22
   52.1763153        -7.77370042E-22
   52.3031082        -7.62604737E-22
   52.4299011        -7.06049241E-22
   52.5566940        -6.02874262E-22
   52.6834869        -4.49752851E-22
   52.8102798        -2.45306232E-22
   52.9370728         9.46825726E-24
   53.0638657         3.10813039E-22
   53.1906586         6.51897285E-22
   53.3174477         1.02260597E-21
   53.4442406         1.40945700E-21
   53.5710335         1.79567825E-21
   53.6978264         2.16146676E-21
   53.8246193         2.48445272E-21
   53.9514122         2.74037707E-21
   54.0782051         2.90399465E-21
   54.2049980         2.95018772E-21
   54.3317909         2.85528227E-21
   54.4585838         2.59852267E-21
   54.5853767         2.16366861E-21
   54.7121696         1.54064671E-21
   54.8389626         7.27186927E-22
   54.9657555        -2.69656538E-22
   55.0925484        -1.43217942E-21
   55.2193375        -2.73102484E-21
   55.3461304        -4.12459597E-21
   55.4729233        -5.55899945E-21
   55.5997162        -6.96861781E-21
   55.7265091        -8.27738959E-21
   55.8533020        -9.40086646E-21
   55.9800949        -1.02490642E-20
   56.1068878        -1.07301271E-20
   56.2336807        -1.07547261E-20
   56.3604736        -1.02411196E-20
   56.4872665        -9.12070911E-21
   56.6140594        -7.34390577E-21
   56.7408524        -4.88603148E-21
   56.8676453        -1.75297828E-21
   56.9944382         2.01375525E-21
   57.1212273         6.33297515E-21
   57.2480202         1.10810666E-20
   57.3748131         1.60910217E-20
   57.5016060         2.11535237E-20
   57.6283989         2.60204735E-20
   57.7551918         3.04111175E-20
   57.8819847         3.40209531E-20
   58.0087776         3.65334011E-20
   58.1355705         3.76341103E-20
   58.2623634         3.70276157E-20
   58.3891563         3.44557981E-20
   58.5159492         2.97176203E-20
   58.6427422         2.26891070E-20
   58.7695351         1.33427860E-20
   58.8963280         1.76530521E-21
   59.0231171        -1.18279444E-20
   59.1499100        -2.70824749E-20
   59.2767029        -4.34998775E-20
   59.4034958        -6.04397545E-20
   59.5302887        -7.71292801E-20
   59.6570816        -9.26813742E-20
   59.7838745        -1.06121773E-19
   59.9106674        -1.16425090E-19
   60.0374603        -1.22559345E-19
   60.1642532        -1.23538313E-19
   60.2910461        -1.18479755E-19
   60.4178391        -1.06667719E-19
   60.5446320        -8.76163276E-20
   60.6714249        -6.11316070E-20
   60.7982178        -2.73682335E-20
   60.9250069         1.31230532E-20
   61.0517998         5.93608524E-20
   61.1785927         1.09915669E-19
   61.3053856         1.62912847E-19
   61.4321785         2.16059137E-19
   61.5589714         2.66695282E-19
   61.6857643         3.11875422E-19
   61.8125572         3.48474364E-19
   61.9393501         3.73319871E-19
   62.0661430         3.83348661E-19
   62.1929359         3.75779958E-19
   62.3197289         3.48301613E-19
   62.4465218         2.99259884E-19
   62.5733147         2.27844160E-19
   62.7001076         1.34256338E-19
   62.8268967         1.98528614E-20
   62.9536896        -1.12750805E-19
   63.0804825        -2.59625525E-19
   63.2072754        -4.15532940E-19
   63.3340683        -5.73998618E-19
   63.4608612        -7.27458510E-19
   63.5876541        -8.67484678E-19
   63.7144470        -9.85086186E-19
   63.8412399        -1.07108526E-18
   63.9680328        -1.11655672E-18
   64.0948257        -1.11331655E-18
   64.2216187        -1.05444766E-18
   64.3484116        -9.34830208E-19
   64.4752045        -7.51661349E-19
   64.6019974        -5.04928313E-19
   64.7287903        -1.97806517E-19
   64.8555832         1.63047742E-19
   64.9823761         5.67341365E-19
   65.1091690         1.00115127E-18
   65.2359619         1.44711619E-18
   65.3627548         1.88483173E-18
   65.4895477         2.29145160E-18
   65.6163330         2.64249774E-18
   65.7431259         2.91286566E-18
   65.8699188         3.07799489E-18
   65.9967117         3.11517708E-18
   66.1235046         3.00494389E-18
   66.2502975         2.73248279E-18
   66.3770905         2.28900500E-18
   66.5038834         1.67300081E-18
   66.6306763         8.91286696E-19
   66.7574692        -4.02149558E-20
   66.8842621        -1.09605795E-18
   67.0110550        -2.24127399E-18
   67.1378479        -3.43184560E-18
   67.2646408        -4.61570297E-18
   67.3914337        -5.73424100E-18
   67.5182266        -6.72436751E-18
   67.6450195        -7.52103384E-18
   67.7718124        -8.06018934E-18
   67.8986053        -8.28206399E-18
   68.0253983        -8.13465214E-18
   68.1521912        -7.57725896E-18
   68.2789841        -6.58393126E-18
   68.4057770        -5.14658253E-18
   68.5325699        -3.27764217E-18
   68.6593628        -1.01201050E-18
   68.7861557         1.59185150E-18
   68.9129486         4.45184594E-18
   69.0397415         7.46331235E-18
   69.1665344         1.05013598E-17
   69.2933273         1.34244358E-17
   69.4201126         1.60791652E-17
   69.5469055         1.83063441E-17
   69.6736984         1.99479088E-17
   69.8004913         2.08546989E-17
   69.9272842         2.08946981E-17
   70.0540771         1.99613885E-17
   70.1808701         1.79818725E-17
   70.3076630         1.49242755E-17
   70.4344559         1.08040541E-17
   70.5612488         5.68870140E-18
   70.6880417        -2.99478750E-19
   70.8148346        -6.98294954E-18
   70.9416275        -1.41311135E-17
   71.0684204        -2.14652724E-17
   71.1952133        -2.86664471E-17
   71.3220062        -3.53859958E-17
   71.4487991        -4.12587796E-17
   71.5755920        -4.59186123E-17
   71.7023849        -4.90153449E-17
   71.8291779        -5.02330937E-17
   71.9559708        -4.93087690E-17
   72.0827637        -4.60500480E-17
   72.2095566        -4.03518621E-17
   72.3363495        -3.22105686E-17
   72.4631424        -2.17346868E-17
   72.5899353        -9.15148706E-18
   72.7167282         5.19129205E-18
   72.8435211         2.08293310E-17
   72.9703140         3.71914234E-17
   73.0971069         5.36151639E-17
   73.2238922         6.93685375E-17
   73.3506851         8.36767967E-17
   73.4774780         9.57540637E-17
   73.6042709         1.04838492E-16
   73.7310638         1.10229612E-16
   73.8578568         1.11326467E-16
   73.9846497         1.07664618E-16
   74.1114426         9.89504088E-17
   74.2382355         8.50902167E-17
   74.3650284         6.62132471E-17
   74.4918213         4.26860831E-17
   74.6186142         1.51173477E-17
   74.7454071        -1.56483299E-17
   74.8722000        -4.85478952E-17
   74.9989929        -8.23291805E-17
   75.1257858        -1.15591476E-16
   75.2525787        -1.46836497E-16
   75.3793716        -1.74528359E-16
   75.5061646        -1.97160127E-16
   75.6329575        -2.13324957E-16
   75.7597504        -2.21788139E-16
   75.8865433        -2.21557362E-16
   76.0133362        -2.11947231E-16
   76.1401291        -1.92635012E-16
   76.2669220        -1.63703675E-16
   76.3937149        -1.25669779E-16
   76.5205078        -7.94931090E-17
   76.6473007        -2.65666027E-17
   76.7740936         3.13145731E-17
   76.9008865         9.20053011E-17
   77.0276718         1.53082835E-16
   77.1544647         2.11937477E-16
   77.2812576         2.65878772E-16
   77.4080505         3.12253031E-16
   77.5348434         3.48567928E-16
   77.6616364         3.72617946E-16
   77.7884293         3.82605629E-16
   77.9152222         3.77251799E-16
   78.0420151         3.55888940E-16
   78.1688080         3.18532166E-16
   78.2956009         2.65922076E-16
   78.4223938         1.99536319E-16
   78.5491867         1.21566526E-16
   78.6759796         3.48594523E-17
   78.8027725        -5.71777613E-17
   78.9295654        -1.50704962E-16
   79.0563583        -2.41606513E-16
   79.1831512        -3.25672151E-16
   79.3099442        -3.98794520E-16
   79.4367371        -4.57174545E-16
   79.5635300        -4.97525024E-16
   79.6903229        -5.17262798E-16
   79.8171158        -5.14676224E-16
   79.9439087        -4.89063959E-16
   80.0707016        -4.40828530E-16
   80.1974945        -3.71521859E-16
   80.3242874        -2.83836294E-16
   80.4510803        -1.81535572E-16
   80.5778732        -6.93270130E-17
   80.7046585         4.73239922E-17
   80.8314514         1.62430611E-16
   80.9582443         2.69766521E-16
   81.0850372         3.63179273E-16
   81.2118301         4.36923338E-16
   81.3386230         4.85996853E-16
   81.4654160         5.06462440E-16
   81.5922089         4.95740326E-16
   81.7190018         4.52849383E-16
   81.8457947         3.78584446E-16
   81.9725876         2.75612742E-16
   82.0993805         1.48480707E-16
   82.2261734         3.52115773E-18
   82.3529663        -1.51342460E-16
   82.4797592        -3.06893139E-16
   82.6065521        -4.53008837E-16
   82.7333450        -5.79137231E-16
   82.8601379        -6.74832896E-16
   82.9869308        -7.30339653E-16
   83.1137238        -7.37189079E-16
   83.2405167        -6.88788293E-16
   83.3673096        -5.80967564E-16
   83.4941025        -4.12451762E-16
   83.6208954        -1.85230144E-16
   83.7476883         9.52028438E-17
   83.8744812         4.19768300E-16
   84.0012741         7.75886944E-16
   84.1280670         1.14775633E-15
   84.2548599         1.51681239E-15
   84.3816528         1.86236795E-15
   84.5084381         2.16243001E-15
   84.6352310         2.39465023E-15
   84.7620239         2.53739498E-15
   84.8888168         2.57087904E-15
   85.0156097         2.47832862E-15
   85.1424026         2.24711086E-15
   85.2691956         1.86977991E-15
   85.3959885         1.34498424E-15
   85.5227814         6.78172959E-16
   85.6495743        -1.17936990E-16
   85.7763672        -1.02318531E-15
   85.9031601        -2.01011739E-15
   86.0299530        -3.04446426E-15
   86.1567459        -4.08599546E-15
   86.2835388        -5.08968884E-15
   86.4103317        -6.00724194E-15
   86.5371246        -6.78885811E-15
   86.6639175        -7.38526333E-15
   86.7907104        -7.74987882E-15
   86.9175034        -7.84107463E-15
   87.0442963        -7.62440699E-15
   87.1710892        -7.07476180E-15
   87.2978821        -6.17827018E-15
   87.4246750        -4.93393050E-15
   87.5514679        -3.35483387E-15
   87.6782608        -1.46890961E-15
   87.8050537         6.80893893E-16
   87.9318466         3.03699132E-15
   88.0586395         5.52821940E-15
   88.1854324         8.07147690E-15
   88.3122177         1.05740341E-14
   88.4390106         1.29363429E-14
   88.5658035         1.50554042E-14
   88.6925964         1.68285033E-14
   88.8193893         1.81571982E-14
   88.9461823         1.89515135E-14
   89.0729752         1.91340270E-14
   89.1997681         1.86438575E-14
   89.3265610         1.74402644E-14
   89.4533539         1.55057411E-14
   89.5801468         1.28484556E-14
   89.7069397         9.50388416E-15
   89.8337326         5.53550981E-15
   89.9605255         1.03455249E-15
   90.0873184        -3.88139931E-15
   90.2141113        -9.07082670E-15
   90.3409042        -1.43717503E-14
   90.4676971        -1.96062208E-14
   90.5944901        -2.45857039E-14
   90.7212830        -2.91171438E-14
   90.8480759        -3.30096939E-14
   90.9748688        -3.60816994E-14
   91.1016617        -3.81678704E-14
   91.2284546        -3.91262340E-14
   91.3552475        -3.88447785E-14
   91.4820404        -3.72473421E-14
   91.6088333        -3.42986239E-14
   91.7356262        -3.00080022E-14
   91.8624191        -2.44320250E-14
   91.9892120        -1.76753397E-14
   92.1159973        -9.88992196E-15
   92.2427902        -1.27271581E-15
   92.3695831         7.93869771E-15
   92.4963760         1.74718824E-14
   92.6231689         2.70270544E-14
   92.7499619         3.62859597E-14
   92.8767548         4.49218570E-14
   93.0035477         5.26105309E-14
   93.1303406         5.90415981E-14
   93.2571335         6.39302115E-14
   93.3839264         6.70283531E-14
   93.5107193         6.81355539E-14
   93.6375122         6.71085231E-14
   93.7643051         6.38691980E-14
   93.8910980         5.84111142E-14
   94.0178909         5.08034133E-14
   94.1446838         4.11924997E-14
   94.2714767         2.98010213E-14
   94.3982697         1.69240520E-14
   94.5250626         2.92251587E-15
   94.6518555        -1.17861077E-14
   94.7786484        -2.67396053E-14
   94.9054413        -4.14451561E-14
   95.0322342        -5.53952771E-14
   95.1590271        -6.80851520E-14
   95.2858200        -7.90308980E-14
   95.4126129        -8.77879787E-14
   95.5394058        -9.39692863E-14
   95.6661987        -9.72619812E-14
   95.7929916        -9.74426906E-14
   95.9197769        -9.43900855E-14
   96.0465698        -8.80944487E-14
   96.1733627        -7.86635771E-14
   96.3001556        -6.63246923E-14
   96.4269485        -5.14218862E-14
   96.5537415        -3.44089957E-14
   96.6805344        -1.58379999E-14
   96.8073273         3.65713590E-15
   96.9341202         2.33805285E-14
   97.0609131         4.25979916E-14
   97.1877060         6.05636960E-14
   97.3144989         7.65485494E-14
   97.4412918         8.98697891E-14
   97.5680847         9.99204517E-14
   97.6948776         1.06197549E-13
   97.8216705         1.08327945E-13
   97.9484634         1.06090389E-13
   98.0752563         9.94332248E-14