  -4.50000000         0.00000000    
  -4.37320757         0.00000000    
  -4.24641466         0.00000000    
  -4.11962223         0.00000000    
  -3.99282932         1.38581656E-23
  -3.86603665        -4.67306559E-22
  -3.73924398        -5.00739196E-21
  -3.61245155        -2.43511988E-20
  -3.48565888        -7.36021819E-20
  -3.35886621        -1.44653559E-19
  -3.23207355        -1.45031632E-19
  -3.10528088         1.61620674E-19
  -2.97848821         1.11967581E-18
  -2.85169554         2.95422655E-18
  -2.72490287         5.37622275E-18
  -2.59811020         7.24549088E-18
  -2.47131753         6.61233375E-18
  -2.34452486         1.23878196E-18
  -2.21773219        -1.08019506E-17
  -2.09093952        -3.12056798E-17
  -1.96414697        -6.25535684E-17
  -1.83735430        -1.09466157E-16
  -1.71056163        -1.77263071E-16
  -1.58376896        -2.65516718E-16
  -1.45697629        -3.56666833E-16
  -1.33018374        -4.05164499E-16
  -1.20339108        -3.37530639E-16
  -1.07659841        -7.38181670E-17
 -0.949805737         4.27001670E-16
 -0.823013067         1.11024865E-15
 -0.696220458         1.78557446E-15
 -0.569427788         2.13880690E-15
 -0.442635119         1.82021557E-15
 -0.315842479         6.05050775E-16
 -0.189049825        -1.41681878E-15
  -6.22571707E-02    -3.69895476E-15
   6.45354837E-02    -5.23118485E-15
  0.191328138        -4.72943472E-15
  0.318120778        -1.02439741E-15
  0.444913447         6.43015575E-15
  0.571706116         1.70833688E-14
  0.698498726         2.90381461E-14
  0.825291395         3.91911133E-14
  0.952084064         4.38295132E-14
   1.07887673         3.96067693E-14
   1.20566940         2.46656096E-14
   1.33246195        -4.24527222E-16
   1.45925462        -3.22528056E-14
   1.58604729        -6.48971775E-14
   1.71283996        -9.10122468E-14
   1.83963263        -1.03446840E-13
   1.96642530        -9.69761042E-14
   2.09321785        -6.96753107E-14
   2.22001052        -2.35678667E-14
   2.34680319         3.55807845E-14
   2.47359586         9.91620048E-14
   2.60038853         1.56937234E-13
   2.72718120         1.98139858E-13
   2.85397387         2.12205213E-13
   2.98076653         1.89189186E-13
   3.10755920         1.20278204E-13
   3.23435187        -1.02223218E-15
   3.36114454        -1.76545871E-13
   3.48793697        -3.99951312E-13
   3.61472964        -6.52700929E-13
   3.74152231        -9.00892425E-13
   3.86831498        -1.09470462E-12
   3.99510765        -1.17206407E-12
   4.12190056        -1.06734890E-12
   4.24869299        -7.24583317E-13
   4.37548542        -1.13012295E-13
   4.50227833         7.58353124E-13
   4.62907076         1.83119492E-12
   4.75586367         2.99679444E-12
   4.88265610         4.10521573E-12
   5.00944901         4.98415675E-12
   5.13624144         5.46431260E-12
   5.26303434         5.40607229E-12
   5.38982677         4.72162760E-12
   5.51661968         3.38741210E-12
   5.64341211         1.44418125E-12
   5.77020502        -1.01483015E-12
   5.89699745        -3.86373268E-12
   6.02379036        -6.96579773E-12
   6.15058279        -1.01908803E-11
   6.27737522        -1.34237682E-11
   6.40416813        -1.65626800E-11
   6.53096056        -1.95119303E-11
   6.65775347        -2.21765193E-11
   6.78454590        -2.44689130E-11
   6.91133881        -2.63366377E-11
   7.03813124        -2.78140653E-11
   7.16492414        -2.90937153E-11
   7.29171658        -3.06020868E-11
   7.41850948        -3.30568663E-11
   7.54530191        -3.74764074E-11
   7.67209482        -4.51145440E-11
   7.79888725        -5.73012228E-11
   7.92567968        -7.51853094E-11
   8.05247211        -9.93946453E-11
   8.17926502        -1.29648556E-10
   8.30605793        -1.64372668E-10
   8.43285084        -2.00372122E-10
   8.55964279        -2.32614386E-10
   8.68643570        -2.54156751E-10
   8.81322861        -2.56230398E-10
   8.94002151        -2.28470340E-10
   9.06681347        -1.59264241E-10
   9.19360638        -3.61939576E-11
   9.32039928         1.53437096E-10
   9.44719219         4.21957302E-10
   9.57398415         7.80479625E-10
   9.70077705         1.23772226E-09
   9.82756996         1.79833892E-09
   9.95436192         2.46061327E-09
   10.0811548         3.21343308E-09
   10.2079477         4.03258715E-09
   10.3347406         4.87660401E-09
   10.4615326         5.68254377E-09
   10.5883255         6.36238928E-09
   10.7151184         6.80082346E-09
   10.8419113         6.85527901E-09
   10.9687033         6.35909903E-09
   11.0954962         5.12850606E-09
   11.2222891         2.97371905E-09
   11.3490820        -2.85841267E-10
   11.4758739        -4.80289319E-09
   11.6026669        -1.06813616E-08
   11.7294598        -1.79549655E-08
   11.8562517        -2.65675713E-08
   11.9830446        -3.63581130E-08
   12.1098375        -4.70529251E-08
   12.2366304        -5.82687889E-08
   12.3634224        -6.95297402E-08
   12.4902153        -8.03007012E-08
   12.6170082        -9.00406505E-08
   12.7438011        -9.82776172E-08
   12.8705931        -1.04707311E-07
   12.9973860        -1.09316275E-07
   13.1241789        -1.12529818E-07
   13.2509708        -1.15383145E-07
   13.3777637        -1.19713903E-07
   13.5045567        -1.28371497E-07
   13.6313496        -1.45437980E-07
   13.7581415        -1.76452573E-07
   13.8849344        -2.28632231E-07
   14.0117273        -3.11076292E-07
   14.1385202        -4.34945605E-07
   14.2653122        -6.13604641E-07
   14.3921051        -8.62713648E-07
   14.5188980        -1.20026186E-06
   14.6456909        -1.64653318E-06
   14.7724829        -2.22399331E-06
   14.8992758        -2.95710174E-06
   15.0260687        -3.87203727E-06
   15.1528606        -4.99634461E-06
   15.2796535        -6.35850847E-06
   15.4064465        -7.98745532E-06
   15.5332394        -9.91200886E-06
   15.6600313        -1.21602834E-05
   15.7868242        -1.47590681E-05
   15.9136171        -1.77331876E-05
   16.0404091        -2.11048718E-05
   16.1672020        -2.48931283E-05
   16.2939949        -2.91131728E-05
   16.4207878        -3.37758647E-05
   16.5475807        -3.88872650E-05
   16.6743736        -4.44481702E-05
   16.8011646        -5.04537638E-05
   16.9279575        -5.68933683E-05
   17.0547504        -6.37502017E-05
   17.1815434        -7.10013046E-05
   17.3083363        -7.86174496E-05
   17.4351292        -8.65632901E-05
   17.5619221        -9.47974404E-05
   17.6887150        -1.03272854E-04
   17.8155060        -1.11937115E-04
   17.9422989        -1.20733064E-04
   18.0690918        -1.29599401E-04
   18.1958847        -1.38471485E-04
   18.3226776        -1.47282190E-04
   18.4494705        -1.55963047E-04
   18.5762634        -1.64445228E-04
   18.7030544        -1.72660773E-04
   18.8298473        -1.80544026E-04
   18.9566402        -1.88032587E-04
   19.0834332        -1.95068729E-04
   19.2102261        -2.01600516E-04
   19.3370190        -2.07582852E-04
   19.4638119        -2.12978499E-04
   19.5906048        -2.17758701E-04
   19.7173958        -2.21903771E-04
   19.8441887        -2.25403375E-04
   19.9709816        -2.28256584E-04
   20.0977745        -2.30471924E-04
   20.2245674        -2.32066566E-04
   20.3513603        -2.33065919E-04
   20.4781532        -2.33502840E-04
   20.6049442        -2.33416635E-04
   20.7317371        -2.32851671E-04
   20.8585300        -2.31856713E-04
   20.9853230        -2.30483594E-04
   21.1121159        -2.28785793E-04
   21.2389088        -2.26817865E-04
   21.3657017        -2.24634365E-04
   21.4924946        -2.22289207E-04
   21.6192856        -2.19835085E-04
   21.7460785        -2.17323090E-04
   21.8728714        -2.14802640E-04
   21.9996643        -2.12321465E-04
   22.1264572        -2.09925536E-04
   22.2532501        -2.07659425E-04
   22.3800430        -2.05566394E-04
   22.5068340        -2.03688585E-04
   22.6336269        -2.02066978E-04
   22.7604198        -2.00741459E-04
   22.8872128        -1.99750633E-04
   23.0140057        -1.99131406E-04
   23.1407986        -1.98918220E-04
   23.2675915        -1.99142291E-04
   23.3943844        -1.99830771E-04
   23.5211754        -2.01005460E-04
   23.6479683        -2.02681811E-04
   23.7747612        -2.04867407E-04
   23.9015541        -2.07561156E-04
   24.0283470        -2.10751983E-04
   24.1551399        -2.14418251E-04
   24.2819328        -2.18527290E-04
   24.4087238        -2.23035080E-04
   24.5355167        -2.27886674E-04
   24.6623096        -2.33016937E-04
   24.7891026        -2.38351611E-04
   24.9158955        -2.43809191E-04
   25.0426884        -2.49302742E-04
   25.1694813        -2.54742248E-04
   25.2962742        -2.60037486E-04
   25.4230652        -2.65100884E-04
   25.5498581        -2.69850018E-04
   25.6766510        -2.74211139E-04
   25.8034439        -2.78121151E-04
   25.9302368        -2.81530956E-04
   26.0570297        -2.84406822E-04
   26.1838226        -2.86732276E-04
   26.3106136        -2.88509444E-04
   26.4374065        -2.89759511E-04
   26.5641994        -2.90522468E-04
   26.6909924        -2.90856638E-04
   26.8177853        -2.90837226E-04
   26.9445782        -2.90554744E-04
   27.0713711        -2.90112221E-04
   27.1981640        -2.89622985E-04
   27.3249550        -2.89206917E-04
   27.4517479        -2.88988056E-04
   27.5785408        -2.89090298E-04
   27.7053337        -2.89634860E-04
   27.8321266        -2.90736672E-04
   27.9589195        -2.92501645E-04
   28.0857124        -2.95024074E-04
   28.2125034        -2.98384315E-04
   28.3392963        -3.02647473E-04
   28.4660892        -3.07861803E-04
   28.5928822        -3.14058125E-04
   28.7196751        -3.21249652E-04
   28.8464680        -3.29432311E-04
   28.9732609        -3.38585291E-04
   29.1000538        -3.48672154E-04
   29.2268448        -3.59642145E-04
   29.3536377        -3.71431583E-04
   29.4804306        -3.83966457E-04
   29.6072235        -3.97163327E-04
   29.7340164        -4.10932378E-04
   29.8608093        -4.25178587E-04
   29.9876022        -4.39804135E-04
   30.1143932        -4.54710418E-04
   30.2411861        -4.69799881E-04
   30.3679790        -4.84977238E-04
   30.4947720        -5.00151596E-04
   30.6215649        -5.15237451E-04
   30.7483578        -5.30156016E-04
   30.8751507        -5.44835755E-04
   31.0019417        -5.59213746E-04
   31.1287346        -5.73235564E-04
   31.2555275        -5.86855749E-04
   31.3823204        -6.00037922E-04
   31.5091133        -6.12754317E-04
   31.6359062        -6.24985259E-04
   31.7626991        -6.36719400E-04
   31.8894920        -6.47951092E-04
   32.0162849        -6.58680801E-04
   32.1430779        -6.68913242E-04
   32.2698708        -6.78655575E-04
   32.3966637        -6.87916297E-04
   32.5234528        -6.96703442E-04
   32.6502457        -7.05021841E-04
   32.7770386        -7.12872832E-04
   32.9038315        -7.20251061E-04
   33.0306244        -7.27143488E-04
   33.1574173        -7.33528112E-04
   33.2842102        -7.39371579E-04
   33.4110031        -7.44629710E-04
   33.5377960        -7.49245752E-04
   33.6645889        -7.53151020E-04
   33.7913818        -7.56264431E-04
   33.9181747        -7.58494192E-04
   34.0449677        -7.59738672E-04
   34.1717606        -7.59888266E-04
   34.2985535        -7.58828071E-04
   34.4253426        -7.56440684E-04
   34.5521355        -7.52609107E-04
   34.6789284        -7.47220707E-04
   34.8057213        -7.40170304E-04
   34.9325142        -7.31364707E-04
   35.0593071        -7.20725337E-04
   35.1861000        -7.08192994E-04
   35.3128929        -6.93730195E-04
   35.4396858        -6.77324075E-04
   35.5664787        -6.58988836E-04
   35.6932716        -6.38767786E-04
   35.8200645        -6.16733567E-04
   35.9468575        -5.92989265E-04
   36.0736504        -5.67667361E-04
   36.2004433        -5.40929032E-04
   36.3272324        -5.12962113E-04
   36.4540253        -4.83978569E-04
   36.5808182        -4.54211229E-04
   36.7076111        -4.23910009E-04
   36.8344040        -3.93338123E-04
   36.9611969        -3.62766965E-04
   37.0879898        -3.32471827E-04
   37.2147827        -3.02726199E-04
   37.3415756        -2.73797516E-04
   37.4683685        -2.45941628E-04
   37.5951614        -2.19398469E-04
   37.7219543        -1.94387467E-04
   37.8487473        -1.71103617E-04
   37.9755402        -1.49713989E-04
   38.1023293        -1.30355111E-04
   38.2291222        -1.13130562E-04
   38.3559151        -9.81096382E-05
   38.4827080        -8.53265592E-05
   38.6095009        -7.47805752E-05
   38.7362938        -6.64365944E-05
   38.8630867        -6.02265936E-05
   38.9898796        -5.60516746E-05
   39.1166725        -5.37845153E-05
   39.2434654        -5.32724807E-05
   39.3702583        -5.43410461E-05
   39.4970512        -5.67975148E-05
   39.6238441        -6.04350425E-05
   39.7506371        -6.50366856E-05
   39.8774300        -7.03796468E-05
   40.0042191        -7.62394775E-05
   40.1310120        -8.23941664E-05
   40.2578049        -8.86280468E-05
   40.3845978        -9.47358349E-05
   40.5113907        -1.00525787E-04
   40.6381836        -1.05823136E-04
   40.7649765        -1.10472705E-04
   40.8917694        -1.14341572E-04
   41.0185623        -1.17320487E-04
   41.1453552        -1.19325618E-04
   41.2721481        -1.20299090E-04
   41.3989410        -1.20209348E-04
   41.5257339        -1.19050696E-04
   41.6525269        -1.16842391E-04
   41.7793198        -1.13627153E-04
   41.9061089        -1.09469242E-04
   42.0329018        -1.04451945E-04
   42.1596947        -9.86751184E-05
   42.2864876        -9.22518593E-05
   42.4132805        -8.53056990E-05
   42.5400734        -7.79671827E-05
   42.6668663        -7.03708865E-05
   42.7936592        -6.26523688E-05
   42.9204521        -5.49456199E-05
   43.0472450        -4.73803848E-05
   43.1740379        -4.00803510E-05
   43.3008308        -3.31614356E-05
   43.4276237        -2.67305295E-05
   43.5544167        -2.08846614E-05
   43.6812096        -1.57104641E-05
   43.8079987        -1.12840071E-05
   43.9347916        -7.67076654E-06
   44.0615845        -4.92582967E-06
   44.1883774        -3.09410962E-06
   44.3151703        -2.21061669E-06
   44.4419632        -2.30066257E-06
   44.5687561        -3.37998108E-06
   44.6955490        -5.45467356E-06
   44.8223419        -8.52104768E-06
   44.9491348        -1.25653032E-05
   45.0759277        -1.75631230E-05
   45.2027206        -2.34791860E-05
   45.3295135        -3.02666449E-05
   45.4563065        -3.78667901E-05
   45.5830994        -4.62086537E-05
   45.7098885        -5.52089696E-05
   45.8366814        -6.47723937E-05
   45.9634743        -7.47919476E-05
   46.0902672        -8.51499790E-05
   46.2170601        -9.57194061E-05
   46.3438530        -1.06365420E-04
   46.4706459        -1.16947653E-04
   46.5974388        -1.27322448E-04
   46.7242317        -1.37345764E-04
   46.8510246        -1.46876002E-04
   46.9778175        -1.55777088E-04
   47.1046104        -1.63921504E-04
   47.2314034        -1.71193373E-04
   47.3581963        -1.77490947E-04
   47.4849892        -1.82729345E-04
   47.6117783        -1.86842401E-04
   47.7385712        -1.89784332E-04
   47.8653641        -1.91530780E-04
   47.9921570        -1.92079402E-04
   48.1189499        -1.91449755E-04
   48.2457428        -1.89682760E-04
   48.3725357        -1.86839767E-04
   48.4993286        -1.83000840E-04
   48.6261215        -1.78262868E-04
   48.7529144        -1.72737389E-04
   48.8797073        -1.66547892E-04
   49.0065002        -1.59827308E-04
   49.1332932        -1.52715016E-04
   49.2600861        -1.45354134E-04
   49.3868790        -1.37888564E-04
   49.5136681        -1.30460743E-04
   49.6404610        -1.23208825E-04
   49.7672539        -1.16264564E-04
   49.8940468        -1.09751491E-04
   50.0208397        -1.03783066E-04
   50.1476326        -9.84615981E-05
   50.2744255        -9.38768062E-05
   50.4012184        -9.01053427E-05
   50.5280113        -8.72100281E-05
   50.6548042        -8.52396115E-05
   50.7815971        -8.42284862E-05
   50.9083900        -8.41966976E-05
   51.0351830        -8.51499499E-05
   51.1619759        -8.70797885E-05
   51.2887688        -8.99637089E-05
   51.4155579        -9.37654913E-05
   51.5423508        -9.84354265E-05
   51.6691437        -1.03910847E-04
   51.7959366        -1.10116445E-04
   51.9227295        -1.16965100E-04
   52.0495224        -1.24358558E-04
   52.1763153        -1.32188536E-04
   52.3031082        -1.40338030E-04
   52.4299011        -1.48682782E-04
   52.5566940        -1.57093324E-04
   52.6834869        -1.65436853E-04
   52.8102798        -1.73579872E-04
   52.9370728        -1.81390686E-04
   53.0638657        -1.88742197E-04
   53.1906586        -1.95514818E-04
   53.3174477        -2.01599178E-04
   53.4442406        -2.06898927E-04
   53.5710335        -2.11333216E-04
   53.6978264        -2.14838772E-04
   53.8246193        -2.17371547E-04
   53.9514122        -2.18907793E-04
   54.0782051        -2.19444759E-04
   54.2049980        -2.19000518E-04
   54.3317909        -2.17613167E-04
   54.4585838        -2.15339503E-04
   54.5853767        -2.12252780E-04
   54.7121696        -2.08440644E-04
   54.8389626        -2.04001844E-04
   54.9657555        -1.99043236E-04
   55.0925484        -1.93676198E-04
   55.2193375        -1.88013510E-04
   55.3461304        -1.82165837E-04
   55.4729233        -1.76238784E-04
   55.5997162        -1.70330299E-04
   55.7265091        -1.64528275E-04
   55.8533020        -1.58909068E-04
   55.9800949        -1.53536297E-04
   56.1068878        -1.48460444E-04
   56.2336807        -1.43718949E-04
   56.3604736        -1.39336917E-04
   56.4872665        -1.35328373E-04
   56.6140594        -1.31697772E-04
   56.7408524        -1.28442087E-04
   56.8676453        -1.25552993E-04
   56.9944382        -1.23018792E-04
   57.1212273        -1.20827033E-04
   57.2480202        -1.18966127E-04
   57.3748131        -1.17427335E-04
   57.5016060        -1.16205876E-04
   57.6283989        -1.15301918E-04
   57.7551918        -1.14720853E-04
   57.8819847        -1.14473216E-04
   58.0087776        -1.14573799E-04
   58.1355705        -1.15040726E-04
   58.2623634        -1.15893708E-04
   58.3891563        -1.17152209E-04
   58.5159492        -1.18833326E-04
   58.6427422        -1.20949662E-04
   58.7695351        -1.23507154E-04
   58.8963280        -1.26503146E-04
   59.0231171        -1.29924767E-04
   59.1499100        -1.33747628E-04
   59.2767029        -1.37935029E-04
   59.4034958        -1.42437915E-04
   59.5302887        -1.47195038E-04
   59.6570816        -1.52134075E-04
   59.7838745        -1.57173185E-04
   59.9106674        -1.62223063E-04
   60.0374603        -1.67189472E-04
   60.1642532        -1.71976237E-04
   60.2910461        -1.76488291E-04
   60.4178391        -1.80635107E-04
   60.5446320        -1.84333752E-04
   60.6714249        -1.87512152E-04
   60.7982178        -1.90111736E-04
   60.9250069        -1.92089719E-04
   61.0517998        -1.93421190E-04
   61.1785927        -1.94099950E-04
   61.3053856        -1.94139240E-04
   61.4321785        -1.93571381E-04
   61.5589714        -1.92446983E-04
   61.6857643        -1.90833322E-04
   61.8125572        -1.88811988E-04
   61.9393501        -1.86476289E-04
   62.0661430        -1.83927928E-04
   62.1929359        -1.81273630E-04
   62.3197289        -1.78621238E-04
   62.4465218        -1.76076152E-04
   62.5733147        -1.73737819E-04
   62.7001076        -1.71696214E-04
   62.8268967        -1.70029132E-04
   62.9536896        -1.68799525E-04
   63.0804825        -1.68053972E-04
   63.2072754        -1.67821359E-04
   63.3340683        -1.68112456E-04
   63.4608612        -1.68920233E-04
   63.5876541        -1.70220897E-04
   63.7144470        -1.71975393E-04
   63.8412399        -1.74131565E-04
   63.9680328        -1.76626709E-04
   64.0948257        -1.79390554E-04
   64.2216187        -1.82348216E-04
   64.3484116        -1.85423312E-04
   64.4752045        -1.88540900E-04
   64.6019974        -1.91630272E-04
   64.7287903        -1.94627064E-04
   64.8555832        -1.97475456E-04
   64.9823761        -2.00129303E-04
   65.1091690        -2.02553012E-04
   65.2359619        -2.04721626E-04
   65.3627548        -2.06620462E-04
   65.4895477        -2.08244266E-04
   65.6163330        -2.09595484E-04
   65.7431259        -2.10682789E-04
   65.8699188        -2.11518753E-04
   65.9967117        -2.12117593E-04
   66.1235046        -2.12493076E-04
   66.2502975        -2.12656087E-04
   66.3770905        -2.12612751E-04
   66.5038834        -2.12363142E-04
   66.6306763        -2.11899940E-04
   66.7574692        -2.11207662E-04
   66.8842621        -2.10263199E-04
   67.0110550        -2.09035876E-04
   67.1378479        -2.07488934E-04
   67.2646408        -2.05581251E-04
   67.3914337        -2.03269316E-04
   67.5182266        -2.00510069E-04
   67.6450195        -1.97263318E-04
   67.7718124        -1.93494954E-04
   67.8986053        -1.89179307E-04
   68.0253983        -1.84302073E-04
   68.1521912        -1.78862552E-04
   68.2789841        -1.72875327E-04
   68.4057770        -1.66371887E-04
   68.5325699        -1.59401010E-04
   68.6593628        -1.52029155E-04
   68.7861557        -1.44339749E-04
   68.9129486        -1.36431903E-04
   69.0397415        -1.28418789E-04
   69.1665344        -1.20424971E-04
   69.2933273        -1.12583723E-04
   69.4201126        -1.05033600E-04
   69.5469055        -9.79150573E-05
   69.6736984        -9.13666590E-05
   69.8004913        -8.55213875E-05
   69.9272842        -8.05032105E-05
   70.0540771        -7.64235374E-05
   70.1808701        -7.33783963E-05
   70.3076630        -7.14458802E-05
   70.4344559        -7.06840583E-05
   70.5612488        -7.11295506E-05
   70.6880417        -7.27967272E-05
   70.8148346        -7.56775044E-05
   70.9416275        -7.97416433E-05
   71.0684204        -8.49378484E-05
   71.1952133        -9.11952593E-05
   71.3220062        -9.84252983E-05
   71.4487991        -1.06524203E-04
   71.5755920        -1.15375537E-04
   71.7023849        -1.24853061E-04
   71.8291779        -1.34823771E-04
   71.9559708        -1.45150858E-04
   72.0827637        -1.55696413E-04
   72.2095566        -1.66324389E-04
   72.3363495        -1.76902962E-04
   72.4631424        -1.87306534E-04
   72.5899353        -1.97417699E-04
   72.7167282        -2.07128556E-04
   72.8435211        -2.16341636E-04
   72.9703140        -2.24970543E-04
   73.0971069        -2.32940220E-04
   73.2238922        -2.40186768E-04
   73.3506851        -2.46657088E-04
   73.4774780        -2.52308382E-04
   73.6042709        -2.57107313E-04
   73.7310638        -2.61029170E-04
   73.8578568        -2.64056871E-04
   73.9846497        -2.66180374E-04
   74.1114426        -2.67395691E-04
   74.2382355        -2.67704396E-04
   74.3650284        -2.67113064E-04
   74.4918213        -2.65633105E-04
   74.6186142        -2.63280788E-04
   74.7454071        -2.60077271E-04
   74.8722000        -2.56049068E-04
   74.9989929        -2.51228485E-04
   75.1257858        -2.45654635E-04
   75.2525787        -2.39373694E-04
   75.3793716        -2.32439590E-04
   75.5061646        -2.24914911E-04
   75.6329575        -2.16871180E-04
   75.7597504        -2.08388970E-04
   75.8865433        -1.99557704E-04
   76.0133362        -1.90475359E-04
   76.1401291        -1.81247509E-04
   76.2669220        -1.71986059E-04
   76.3937149        -1.62807701E-04
   76.5205078        -1.53831817E-04
   76.6473007        -1.45178332E-04
   76.7740936        -1.36965144E-04
   76.9008865        -1.29305568E-04
   77.0276718        -1.22305617E-04
   77.1544647        -1.16061274E-04
   77.2812576        -1.10656154E-04
   77.4080505        -1.06159263E-04
   77.5348434        -1.02623068E-04
   77.6616364        -1.00081939E-04
   77.7884293        -9.85513689E-05
   77.9152222        -9.80273908E-05
   78.0420151        -9.84868602E-05
   78.1688080        -9.98880423E-05
   78.2956009        -1.02171973E-04
   78.4223938        -1.05264233E-04
   78.5491867        -1.09077235E-04
   78.6759796        -1.13512768E-04
   78.8027725        -1.18464966E-04
   78.9295654        -1.23823484E-04
   79.0563583        -1.29476524E-04
   79.1831512        -1.35314127E-04
   79.3099442        -1.41231139E-04
   79.4367371        -1.47129918E-04
   79.5635300        -1.52922716E-04
   79.6903229        -1.58533716E-04
   79.8171158        -1.63900433E-04
   79.9439087        -1.68974482E-04
   80.0707016        -1.73722001E-04
   80.1974945        -1.78123257E-04
   80.3242874        -1.82171716E-04
   80.4510803        -1.85872777E-04
   80.5778732        -1.89241662E-04
   80.7046585        -1.92301406E-04
   80.8314514        -1.95080283E-04
   80.9582443        -1.97608897E-04
   81.0850372        -1.99917893E-04
   81.2118301        -2.02035211E-04
   81.3386230        -2.03983873E-04
   81.4654160        -2.05779827E-04
   81.5922089        -2.07430523E-04
   81.7190018        -2.08934071E-04
   81.8457947        -2.10278682E-04
   81.9725876        -2.11442806E-04
   82.0993805        -2.12395898E-04
   82.2261734        -2.13099964E-04
   82.3529663        -2.13510983E-04
   82.4797592        -2.13581603E-04
   82.6065521        -2.13263411E-04
   82.7333450        -2.12509854E-04
   82.8601379        -2.11279024E-04
   82.9869308        -2.09536403E-04
   83.1137238        -2.07257603E-04
   83.2405167        -2.04430558E-04
   83.3673096        -2.01057192E-04
   83.4941025        -1.97154921E-04
   83.6208954        -1.92757099E-04
   83.7476883        -1.87913291E-04
   83.8744812        -1.82688353E-04
   84.0012741        -1.77161332E-04
   84.1280670        -1.71423642E-04
   84.2548599        -1.65576450E-04
   84.3816528        -1.59727948E-04
   84.5084381        -1.53990346E-04
   84.6352310        -1.48476334E-04
   84.7620239        -1.43295969E-04
   84.8888168        -1.38553238E-04
   85.0156097        -1.34343281E-04
   85.1424026        -1.30749555E-04
   85.2691956        -1.27841748E-04
   85.3959885        -1.25674022E-04
   85.5227814        -1.24283935E-04
   85.6495743        -1.23691920E-04
   85.7763672        -1.23901234E-04
   85.9031601        -1.24898506E-04
   86.0299530        -1.26654966E-04
   86.1567459        -1.29127657E-04
   86.2835388        -1.32261368E-04
   86.4103317        -1.35990558E-04
   86.5371246        -1.40241609E-04
   86.6639175        -1.44934951E-04
   86.7907104        -1.49987347E-04
   86.9175034        -1.55314003E-04
   87.0442963        -1.60830430E-04
   87.1710892        -1.66454294E-04
   87.2978821        -1.72106971E-04
   87.4246750        -1.77714712E-04
   87.5514679        -1.83209573E-04
   87.6782608        -1.88530190E-04
   87.8050537        -1.93622109E-04
   87.9318466        -1.98437905E-04
   88.0586395        -2.02937008E-04
   88.1854324        -2.07085497E-04
   88.3122177        -2.10855462E-04
   88.4390106        -2.14224361E-04
   88.5658035        -2.17174296E-04
   88.6925964        -2.19691370E-04
   88.8193893        -2.21764625E-04
   88.9461823        -2.23385912E-04
   89.0729752        -2.24548727E-04
   89.1997681        -2.25248281E-04
   89.3265610        -2.25480937E-04
   89.4533539        -2.25244294E-04
   89.5801468        -2.24537216E-04
   89.7069397        -2.23360126E-04
   89.8337326        -2.21715483E-04
   89.9605255        -2.19608279E-04
   90.0873184        -2.17046982E-04
   90.2141113        -2.14043859E-04
   90.3409042        -2.10616214E-04
   90.4676971        -2.06786717E-04
   90.5944901        -2.02584386E-04
   90.7212830        -1.98044945E-04
   90.8480759        -1.93211090E-04
   90.9748688        -1.88132733E-04
   91.1016617        -1.82866672E-04
   91.2284546        -1.77476162E-04
   91.3552475        -1.72030210E-04
   91.4820404        -1.66602375E-04
   91.6088333        -1.61269651E-04
   91.7356262        -1.56110807E-04
   91.8624191        -1.51204687E-04
   91.9892120        -1.46628445E-04
   92.1159973        -1.42455538E-04
   92.2427902        -1.38754069E-04
   92.3695831        -1.35584909E-04
   92.4963760        -1.33000067E-04
   92.6231689        -1.31041466E-04
   92.7499619        -1.29739696E-04
   92.8767548        -1.29113309E-04
   93.0035477        -1.29168344E-04
   93.1303406        -1.29898268E-04
   93.2571335        -1.31284149E-04
   93.3839264        -1.33295296E-04
   93.5107193        -1.35890223E-04
   93.6375122        -1.39017662E-04
   93.7643051        -1.42618053E-04
   93.8910980        -1.46625025E-04
   94.0178909        -1.50966924E-04
   94.1446838        -1.55568458E-04
   94.2714767        -1.60352312E-04
   94.3982697        -1.65240446E-04
   94.5250626        -1.70155530E-04
   94.6518555        -1.75022069E-04
   94.7786484        -1.79767449E-04
   94.9054413        -1.84322693E-04
   95.0322342        -1.88623235E-04
   95.1590271        -1.92609339E-04
   95.2858200        -1.96226771E-04
   95.4126129        -1.99426955E-04
   95.5394058        -2.02167357E-04
   95.6661987        -2.04411816E-04
   95.7929916        -2.06130731E-04
   95.9197769        -2.07301186E-04
   96.0465698        -2.07907447E-04
   96.1733627        -2.07940946E-04
   96.3001556        -2.07400459E-04
   96.4269485        -2.06292389E-04
   96.5537415        -2.04630647E-04
   96.6805344        -2.02436815E-04
   96.8073273        -1.99739792E-04
   96.9341202        -1.96575915E-04
   97.0609131        -1.92988358E-04
   97.1877060        -1.89026774E-04
   97.3144989        -1.84746750E-04
   97.4412918        -1.80209230E-04
   97.5680847        -1.75479494E-04
   97.6948776        -1.70626488E-04
   97.8216705        -1.65721824E-04
   97.9484634        -1.60838768E-04
   98.0752563        -1.56051246E-04