  -4.50000000         0.00000000    
  -4.37320757         0.00000000    
  -4.24641466         0.00000000    
  -4.11962223         0.00000000    
  -3.99282932        -2.82382732E-23
  -3.86603665        -9.87300065E-23
  -3.73924398         6.27486066E-22
  -3.61245155         6.42233569E-21
  -3.48565888         2.75882797E-20
  -3.35886621         7.59640475E-20
  -3.23207355         1.45723840E-19
  -3.10528088         1.86306549E-19
  -2.97848821         9.96937267E-20
  -2.85169554        -1.98272556E-19
  -2.72490287        -6.58233936E-19
  -2.59811020        -1.01854812E-18
  -2.47131753        -9.33672879E-19
  -2.34452486        -4.09088427E-19
  -2.21773219        -4.03542104E-19
  -2.09093952        -3.16989176E-18
  -1.96414697        -1.18139134E-17
  -1.83735430        -2.88569401E-17
  -1.71056163        -5.42400327E-17
  -1.58376896        -8.38411608E-17
  -1.45697629        -1.09719711E-16
  -1.33018374        -1.22704899E-16
  -1.20339108        -1.16820494E-16
  -1.07659841        -9.39357222E-17
 -0.949805737        -6.65070484E-17
 -0.823013067        -5.64894743E-17
 -0.696220458        -8.92719919E-17
 -0.569427788        -1.82598995E-16
 -0.442635119        -3.32027571E-16
 -0.315842479        -4.96910343E-16
 -0.189049825        -5.94045064E-16
  -6.22571707E-02    -5.08669066E-16
   6.45354837E-02    -1.31432408E-16
  0.191328138         5.77340992E-16
  0.318120778         1.50906352E-15
  0.444913447         2.34413891E-15
  0.571706116         2.54691118E-15
  0.698498726         1.45649793E-15
  0.825291395        -1.51321356E-15
  0.952084064        -6.59372798E-15
   1.07887673        -1.33782993E-14
   1.20566940        -2.06400923E-14
   1.33246195        -2.63519607E-14
   1.45925462        -2.79596021E-14
   1.58604729        -2.28804216E-14
   1.71283996        -9.11514093E-15
   1.83963263         1.41970718E-14
   1.96642530         4.64556541E-14
   2.09321785         8.56288984E-14
   2.22001052         1.28666121E-13
   2.34680319         1.72220135E-13
   2.47359586         2.13539269E-13
   2.60038853         2.51375120E-13
   2.72718120         2.86787982E-13
   2.85397387         3.23798822E-13
   2.98076653         3.69883269E-13
   3.10755920         4.36310059E-13
   3.23435187         5.38268594E-13
   3.36114454         6.94648766E-13
   3.48793697         9.27262282E-13
   3.61472964         1.25929659E-12
   3.74152231         1.71289187E-12
   3.86831498         2.30593626E-12
   3.99510765         3.04844366E-12
   4.12190056         3.93912767E-12
   4.24869299         4.96299226E-12
   4.37548542         6.09081188E-12
   4.50227833         7.28127367E-12
   4.62907076         8.48625250E-12
   4.75586367         9.65929507E-12
   4.88265610         1.07666862E-11
   5.00944901         1.17998016E-11
   5.13624144         1.27867760E-11
   5.26303434         1.38008242E-11
   5.38982677         1.49624826E-11
   5.51661968         1.64332940E-11
   5.64341211         1.83995701E-11
   5.77020502         2.10465499E-11
   5.89699745         2.45256333E-11
   6.02379036         2.89195438E-11
   6.15058279         3.42119909E-11
   6.27737522         4.02690728E-11
   6.40416813         4.68380751E-11
   6.53096056         5.35664013E-11
   6.65775347         6.00382799E-11
   6.78454590         6.58210222E-11
   6.91133881         7.05076900E-11
   7.03813124         7.37394243E-11
   7.16492414         7.51913115E-11
   7.29171658         7.45103215E-11
   7.41850948         7.12027312E-11
   7.54530191         6.44816076E-11
   7.67209482         5.30976582E-11
   7.79888725         3.51889802E-11
   7.92567968         8.19127058E-12
   8.05247211        -3.11524175E-11
   8.17926502        -8.66532263E-11
   8.30605793        -1.62403951E-10
   8.43285084        -2.62391109E-10
   8.55964279        -3.90043553E-10
   8.68643570        -5.47791701E-10
   8.81322861        -7.36726291E-10
   8.94002151        -9.56441593E-10
   9.06681347        -1.20511889E-09
   9.19360638        -1.47986978E-09
   9.32039928        -1.77728288E-09
   9.44719219        -2.09406448E-09
   9.57398415        -2.42759324E-09
   9.70077705        -2.77617840E-09
   9.82756996        -3.13879345E-09
   9.95436192        -3.51411522E-09
   10.0811548        -3.89874577E-09
   10.2079477        -4.28463531E-09
   10.3347406        -4.65584371E-09
   10.4615326        -4.98492891E-09
   10.5883255        -5.22931343E-09
   10.7151184        -5.32816591E-09
   10.8419113        -5.20017229E-09
   10.9687033        -4.74275152E-09
   11.0954962        -3.83296017E-09
   11.2222891        -2.33034569E-09
   11.3490820        -8.18009202E-11
   11.4758739         3.07169423E-09
   11.6026669         7.28666727E-09
   11.7294598         1.27073969E-08
   11.8562517         1.94553600E-08
   11.9830446         2.76181460E-08
   12.1098375         3.72387881E-08
   12.2366304         4.83059992E-08
   12.3634224         6.07464941E-08
   12.4902153         7.44204272E-08
   12.6170082         8.91217411E-08
   12.7438011         1.04585375E-07
   12.8705931         1.20503302E-07
   12.9973860         1.36552387E-07
   13.1241789         1.52435902E-07
   13.2509708         1.67942929E-07
   13.3777637         1.83024881E-07
   13.5045567         1.97894593E-07
   13.6313496         2.13145313E-07
   13.7581415         2.29891114E-07
   13.8849344         2.49927496E-07
   14.0117273         2.75907951E-07
   14.1385202         3.11533995E-07
   14.2653122         3.61753564E-07
   14.3921051         4.32960292E-07
   14.5188980         5.33186437E-07
   14.6456909         6.72285466E-07
   14.7724829         8.62088257E-07
   14.8992758         1.11653617E-06
   15.0260687         1.45176682E-06
   15.1528606         1.88616366E-06
   15.2796535         2.44034140E-06
   15.4064465         3.13707937E-06
   15.5332394         4.00117824E-06
   15.6600313         5.05926300E-06
   15.7868242         6.33947229E-06
   15.9136171         7.87114368E-06
   16.0404091         9.68433596E-06
   16.1672020         1.18093540E-05
   16.2939949         1.42761755E-05
   16.4207878         1.71138145E-05
   16.5475807         2.03496893E-05
   16.6743736         2.40088411E-05
   16.8011646         2.81133580E-05
   16.9279575         3.26815534E-05
   17.0547504         3.77273391E-05
   17.1815434         4.32596244E-05
   17.3083363         4.92817344E-05
   17.4351292         5.57910644E-05
   17.5619221         6.27786503E-05
   17.6887150         7.02291218E-05
   17.8155060         7.81206327E-05
   17.9422989         8.64251779E-05
   18.0690918         9.51089169E-05
   18.1958847         1.04132690E-04
   18.3226776         1.13452857E-04
   18.4494705         1.23022357E-04
   18.5762634         1.32791494E-04
   18.7030544         1.42709381E-04
   18.8298473         1.52725217E-04
   18.9566402         1.62789263E-04
   19.0834332         1.72854692E-04
   19.2102261         1.82878241E-04
   19.3370190         1.92821695E-04
   19.4638119         2.02652664E-04
   19.5906048         2.12345505E-04
   19.7173958         2.21881841E-04
   19.8441887         2.31250524E-04
   19.9709816         2.40448135E-04
   20.0977745         2.49478355E-04
   20.2245674         2.58351414E-04
   20.3513603         2.67083466E-04
   20.4781532         2.75695609E-04
   20.6049442         2.84212292E-04
   20.7317371         2.92660348E-04
   20.8585300         3.01067630E-04
   20.9853230         3.09461262E-04
   21.1121159         3.17866652E-04
   21.2389088         3.26305919E-04
   21.3657017         3.34797107E-04
   21.4924946         3.43353371E-04
   21.6192856         3.51982191E-04
   21.7460785         3.60685430E-04
   21.8728714         3.69459129E-04
   21.9996643         3.78293975E-04
   22.1264572         3.87176144E-04
   22.2532501         3.96087678E-04
   22.3800430         4.05007886E-04
   22.5068340         4.13914502E-04
   22.6336269         4.22784768E-04
   22.7604198         4.31596796E-04
   22.8872128         4.40330594E-04
   23.0140057         4.48969251E-04
   23.1407986         4.57499787E-04
   23.2675915         4.65913850E-04
   23.3943844         4.74207831E-04
   23.5211754         4.82383824E-04
   23.6479683         4.90448787E-04
   23.7747612         4.98414971E-04
   23.9015541         5.06299722E-04
   24.0283470         5.14124287E-04
   24.1551399         5.21913753E-04
   24.2819328         5.29696641E-04
   24.4087238         5.37503744E-04
   24.5355167         5.45367831E-04
   24.6623096         5.53323247E-04
   24.7891026         5.61404799E-04
   24.9158955         5.69647760E-04
   25.0426884         5.78087231E-04
   25.1694813         5.86757553E-04
   25.2962742         5.95692021E-04
   25.4230652         6.04922650E-04
   25.5498581         6.14478777E-04
   25.6766510         6.24387758E-04
   25.8034439         6.34672877E-04
   25.9302368         6.45353401E-04
   26.0570297         6.56443124E-04
   26.1838226         6.67949440E-04
   26.3106136         6.79871591E-04
   26.4374065         6.92199974E-04
   26.5641994         7.04913749E-04
   26.6909924         7.17979623E-04
   26.8177853         7.31350388E-04
   26.9445782         7.44963123E-04
   27.0713711         7.58737791E-04
   27.1981640         7.72576546E-04
   27.3249550         7.86362041E-04
   27.4517479         7.99957546E-04
   27.5785408         8.13206600E-04
   27.7053337         8.25933239E-04
   27.8321266         8.37942935E-04
   27.9589195         8.49024102E-04
   28.0857124         8.58949556E-04
   28.2125034         8.67479364E-04
   28.3392963         8.74363177E-04
   28.4660892         8.79343948E-04
   28.5928822         8.82160966E-04
   28.7196751         8.82554101E-04
   28.8464680         8.80267646E-04
   28.9732609         8.75053869E-04
   29.1000538         8.66677961E-04
   29.2268448         8.54921353E-04
   29.3536377         8.39585147E-04
   29.4804306         8.20493733E-04
   29.6072235         7.97498040E-04
   29.7340164         7.70477869E-04
   29.8608093         7.39344337E-04
   29.9876022         7.04041042E-04
   30.1143932         6.64546504E-04
   30.2411861         6.20873994E-04
   30.3679790         5.73072291E-04
   30.4947720         5.21226146E-04
   30.6215649         4.65455319E-04
   30.7483578         4.05914325E-04
   30.8751507         3.42791638E-04
   31.0019417         2.76307750E-04
   31.1287346         2.06714423E-04
   31.2555275         1.34292626E-04
   31.3823204         5.93508885E-05
   31.5091133        -1.77769780E-05
   31.6359062        -9.67337910E-05
   31.7626991        -1.77141454E-04
   31.8894920        -2.58603279E-04
   32.0162849        -3.40706756E-04
   32.1430779        -4.23025718E-04
   32.2698708        -5.05123578E-04
   32.3966637        -5.86556096E-04
   32.5234528        -6.66874403E-04
   32.6502457        -7.45628146E-04
   32.7770386        -8.22369126E-04
   32.9038315        -8.96653684E-04
   33.0306244        -9.68047709E-04
   33.1574173        -1.03612978E-03
   33.2842102        -1.10049441E-03
   33.4110031        -1.16075680E-03
   33.5377960        -1.21655513E-03
   33.6645889        -1.26755598E-03
   33.7913818        -1.31345633E-03
   33.9181747        -1.35398866E-03
   34.0449677        -1.38892222E-03
   34.1717606        -1.41806656E-03
   34.2985535        -1.44127454E-03
   34.4253426        -1.45844312E-03
   34.5521355        -1.46951585E-03
   34.6789284        -1.47448247E-03
   34.8057213        -1.47338095E-03
   34.9325142        -1.46629475E-03
   35.0593071        -1.45335402E-03
   35.1861000        -1.43473269E-03
   35.3128929        -1.41064730E-03
   35.4396858        -1.38135231E-03
   35.5664787        -1.34713913E-03
   35.6932716        -1.30833045E-03
   35.8200645        -1.26527762E-03
   35.9468575        -1.21835433E-03
   36.0736504        -1.16795360E-03
   36.2004433        -1.11448148E-03
   36.3272324        -1.05835334E-03
   36.4540253        -9.99988290E-04
   36.5808182        -9.39804653E-04
   36.7076111        -8.78214894E-04
   36.8344040        -8.15622916E-04
   36.9611969        -7.52418011E-04
   37.0879898        -6.88974222E-04
   37.2147827        -6.25644403E-04
   37.3415756        -5.62760630E-04
   37.4683685        -5.00630646E-04
   37.5951614        -4.39537456E-04
   37.7219543        -3.79738660E-04
   37.8487473        -3.21465923E-04
   37.9755402        -2.64925591E-04
   38.1023293        -2.10299593E-04
   38.2291222        -1.57746312E-04
   38.3559151        -1.07402149E-04
   38.4827080        -5.93829354E-05
   38.6095009        -1.37858815E-05
   38.7362938         2.93089124E-05
   38.8630867         6.98369477E-05
   38.9898796         1.07747495E-04
   39.1166725         1.43002952E-04
   39.2434654         1.75577283E-04
   39.3702583         2.05455755E-04
   39.4970512         2.32634469E-04
   39.6238441         2.57120293E-04
   39.7506371         2.78931082E-04
   39.8774300         2.98096100E-04
   40.0042191         3.14656820E-04
   40.1310120         3.28667375E-04
   40.2578049         3.40195489E-04
   40.3845978         3.49322945E-04
   40.5113907         3.56146367E-04
   40.6381836         3.60776874E-04
   40.7649765         3.63340368E-04
   40.8917694         3.63976578E-04
   41.0185623         3.62838269E-04
   41.1453552         3.60089354E-04
   41.2721481         3.55903059E-04
   41.3989410         3.50459100E-04
   41.5257339         3.43940686E-04
   41.6525269         3.36531404E-04
   41.7793198         3.28411086E-04
   41.9061089         3.19752377E-04
   42.0329018         3.10716947E-04
   42.1596947         3.01451568E-04
   42.2864876         2.92084995E-04
   42.4132805         2.82724970E-04
   42.5400734         2.73456186E-04
   42.6668663         2.64338159E-04
   42.7936592         2.55404913E-04
   42.9204521         2.46664858E-04
   43.0472450         2.38101769E-04
   43.1740379         2.29676865E-04
   43.3008308         2.21331560E-04
   43.4276237         2.12990970E-04
   43.5544167         2.04568249E-04
   43.6812096         1.95969566E-04
   43.8079987         1.87099198E-04
   43.9347916         1.77864946E-04
   44.0615845         1.68183513E-04
   44.1883774         1.57985705E-04
   44.3151703         1.47221246E-04
   44.4419632         1.35862661E-04
   44.5687561         1.23908845E-04
   44.6955490         1.11387308E-04
   44.8223419         9.83557184E-05
   44.9491348         8.49020726E-05
   45.0759277         7.11438988E-05
   45.2027206         5.72262943E-05
   45.3295135         4.33190653E-05
   45.4563065         2.96127546E-05
   45.5830994         1.63139957E-05
   45.7098885         3.64019229E-06
   45.8366814        -8.18634271E-06
   45.9634743        -1.89442599E-05
   46.0902672        -2.84194903E-05
   46.2170601        -3.64109619E-05
   46.3438530        -4.27365121E-05
   46.4706459        -4.72377506E-05
   46.5974388        -4.97848087E-05
   46.7242317        -5.02798866E-05
   46.8510246        -4.86603531E-05
   46.9778175        -4.49005893E-05
   47.1046104        -3.90132882E-05
   47.2314034        -3.10494834E-05
   47.3581963        -2.10980361E-05
   47.4849892        -9.28404734E-06
   47.6117783         4.23332585E-06
   47.7385712         1.92637108E-05
   47.8653641         3.55890515E-05
   47.9921570         5.29674689E-05
   48.1189499         7.11376779E-05
   48.2457428         8.98234648E-05
   48.3725357         1.08738546E-04
   48.4993286         1.27591673E-04
   48.6261215         1.46091319E-04
   48.7529144         1.63950899E-04
   48.8797073         1.80893490E-04
   49.0065002         1.96656620E-04
   49.1332932         2.10996528E-04
   49.2600861         2.23692536E-04
   49.3868790         2.34550651E-04
   49.5136681         2.43406932E-04
   49.6404610         2.50130193E-04
   49.7672539         2.54624174E-04
   49.8940468         2.56829226E-04
   50.0208397         2.56723084E-04
   50.1476326         2.54320970E-04
   50.2744255         2.49675271E-04
   50.4012184         2.42874172E-04
   50.5280113         2.34039573E-04
   50.6548042         2.23324794E-04
   50.7815971         2.10911210E-04
   50.9083900         1.97004614E-04
   51.0351830         1.81831099E-04
   51.1619759         1.65632358E-04
   51.2887688         1.48661347E-04
   51.4155579         1.31177119E-04
   51.5423508         1.13440175E-04
   51.6691437         9.57073862E-05
   51.7959366         7.82276620E-05
   51.9227295         6.12375516E-05
   52.0495224         4.49573199E-05
   52.1763153         2.95876707E-05
   52.3031082         1.53064811E-05
   52.4299011         2.26697216E-06
   52.5566940        -9.40440077E-06
   52.6834869        -1.96087531E-05
   52.8102798        -2.82753281E-05
   52.9370728        -3.53612340E-05
   53.0638657        -4.08507040E-05
   53.1906586        -4.47538187E-05
   53.3174477        -4.71046951E-05
   53.4442406        -4.79594964E-05
   53.5710335        -4.73938198E-05
   53.6978264        -4.55002919E-05
   53.8246193        -4.23856654E-05
   53.9514122        -3.81681639E-05
   54.0782051        -3.29747163E-05
   54.2049980        -2.69384545E-05
   54.3317909        -2.01961666E-05
   54.4585838        -1.28862621E-05
   54.5853767        -5.14669409E-06
   54.7121696         2.88674278E-06
   54.8389626         1.10819019E-05
   54.9657555         1.93116102E-05
   55.0925484         2.74547947E-05
   55.2193375         3.53975411E-05
   55.3461304         4.30339969E-05
   55.4729233         5.02673283E-05
   55.5997162         5.70103402E-05
   55.7265091         6.31865114E-05
   55.8533020         6.87306310E-05
   55.9800949         7.35896756E-05
   56.1068878         7.77231471E-05
   56.2336807         8.11039354E-05
   56.3604736         8.37186017E-05
   56.4872665         8.55674371E-05
   56.6140594         8.66645860E-05
   56.7408524         8.70375297E-05
   56.8676453         8.67267299E-05
   56.9944382         8.57844716E-05
   57.1212273         8.42737209E-05
   57.2480202         8.22666625E-05
   57.3748131         7.98428155E-05
   57.5016060         7.70870174E-05
   57.6283989         7.40873438E-05
   57.7551918         7.09329906E-05
   57.8819847         6.77118369E-05
   58.0087776         6.45083419E-05
   58.1355705         6.14016826E-05
   58.2623634         5.84638437E-05
   58.3891563         5.57581698E-05
   58.5159492         5.33382299E-05
   58.6427422         5.12470833E-05
   58.7695351         4.95169916E-05
   58.8963280         4.81694551E-05
   59.0231171         4.72156353E-05
   59.1499100         4.66574857E-05
   59.2767029         4.64886216E-05
   59.4034958         4.66959682E-05
   59.5302887         4.72612446E-05
   59.6570816         4.81626630E-05
   59.7838745         4.93765874E-05
   59.9106674         5.08790217E-05
   60.0374603         5.26469630E-05
   60.1642532         5.46594565E-05
   60.2910461         5.68980977E-05
   60.4178391         5.93475233E-05
   60.5446320         6.19950297E-05
   60.6714249         6.48300047E-05
   60.7982178         6.78430006E-05
   60.9250069         7.10242020E-05
   61.0517998         7.43618511E-05
   61.1785927         7.78403555E-05
   61.3053856         8.14382438E-05
   61.4321785         8.51263903E-05
   61.5589714         8.88662180E-05
   61.6857643         9.26083594E-05
   61.8125572         9.62915801E-05
   61.9393501         9.98423420E-05
   62.0661430         1.03174963E-04
   62.1929359         1.06192470E-04
   62.3197289         1.08787972E-04
   62.4465218         1.10847002E-04
   62.5733147         1.12250287E-04
   62.7001076         1.12877140E-04
   62.8268967         1.12609348E-04
   62.9536896         1.11335481E-04
   63.0804825         1.08955239E-04
   63.2072754         1.05383850E-04
   63.3340683         1.00556324E-04
   63.4608612         9.44314670E-05
   63.5876541         8.69952491E-05
   63.7144470         7.82635543E-05
   63.8412399         6.82840691E-05
   63.9680328         5.71373894E-05
   64.0948257         4.49369945E-05
   64.2216187         3.18282509E-05
   64.3484116         1.79863910E-05
   64.4752045         3.61353159E-06
   64.6019974        -1.10652627E-05
   64.7287903        -2.58067539E-05
   64.8555832        -4.03549166E-05
   64.9823761        -5.44467875E-05
   65.1091690        -6.78186043E-05
   65.2359619        -8.02121867E-05
   65.3627548        -9.13810945E-05
   65.4895477        -1.01096477E-04
   65.6163330        -1.09152475E-04
   65.7431259        -1.15371302E-04
   65.8699188        -1.19606884E-04
   65.9967117        -1.21748388E-04
   66.1235046        -1.21722180E-04
   66.2502975        -1.19493292E-04
   66.3770905        -1.15065406E-04
   66.5038834        -1.08480453E-04
   66.6306763        -9.98167816E-05
   66.7574692        -8.91868694E-05
   66.8842621        -7.67342790E-05
   67.0110550        -6.26299588E-05
   67.1378479        -4.70683080E-05
   67.2646408        -3.02627432E-05
   67.3914337        -1.24413737E-05
   67.5182266         6.15740964E-06
   67.6450195         2.52892460E-05
   67.7718124         4.47078564E-05
   67.8986053         6.41687220E-05
   68.0253983         8.34326129E-05
   68.1521912         1.02268423E-04
   68.2789841         1.20455821E-04
   68.4057770         1.37787283E-04
   68.5325699         1.54070003E-04
   68.6593628         1.69127277E-04
   68.7861557         1.82799631E-04
   68.9129486         1.94945620E-04
   69.0397415         2.05442804E-04
   69.1665344         2.14188112E-04
   69.2933273         2.21098482E-04
   69.4201126         2.26111282E-04
   69.5469055         2.29184909E-04
   69.6736984         2.30298800E-04
   69.8004913         2.29454366E-04
   69.9272842         2.26674878E-04
   70.0540771         2.22005838E-04
   70.1808701         2.15514956E-04
   70.3076630         2.07292032E-04
   70.4344559         1.97448593E-04
   70.5612488         1.86116813E-04
   70.6880417         1.73448570E-04
   70.8148346         1.59613890E-04
   70.9416275         1.44798774E-04
   71.0684204         1.29202876E-04
   71.1952133         1.13036593E-04
   71.3220062         9.65178479E-05
   71.4487991         7.98684778E-05
   71.5755920         6.33105665E-05
   71.7023849         4.70625928E-05
   71.8291779         3.13354394E-05
   71.9559708         1.63286677E-05
   72.0827637         2.22695621E-06
   72.2095566        -1.08030290E-05
   72.3363495        -2.26155789E-05
   72.4631424        -3.30880139E-05
   72.5899353        -4.21224795E-05
   72.7167282        -4.96469183E-05
   72.8435211        -5.56155610E-05
   72.9703140        -6.00087151E-05
   73.0971069        -6.28320704E-05
   73.2238922        -6.41155566E-05
   73.3506851        -6.39116115E-05
   73.4774780        -6.22933367E-05
   73.6042709        -5.93522745E-05
   73.7310638        -5.51962294E-05
   73.8578568        -4.99467096E-05
   73.9846497        -4.37366398E-05
   74.1114426        -3.67079956E-05
   74.2382355        -2.90095522E-05
   74.3650284        -2.07945668E-05
   74.4918213        -1.22189431E-05
   74.6186142        -3.43887837E-06
   74.7454071         5.39075427E-06
   74.8722000         1.41184628E-05
   74.9989929         2.25979129E-05
   75.1257858         3.06898728E-05
   75.2525787         3.82637845E-05
   75.3793716         4.51996202E-05
   75.5061646         5.13895320E-05
   75.6329575         5.67396019E-05
   75.7597504         6.11711657E-05
   75.8865433         6.46222252E-05
   76.0133362         6.70486988E-05
   76.1401291         6.84252664E-05
   76.2669220         6.87460342E-05
   76.3937149         6.80250014E-05
   76.5205078         6.62959428E-05
   76.6473007         6.36120967E-05
   76.7740936         6.00454841E-05
   76.9008865         5.56858176E-05
   77.0276718         5.06390061E-05
   77.1544647         4.50254192E-05
   77.2812576         3.89778907E-05
   77.4080505         3.26392401E-05
   77.5348434         2.61597979E-05
   77.6616364         1.96947221E-05
   77.7884293         1.34009460E-05
   77.9152222         7.43424744E-06
   78.0420151         1.94630593E-06
   78.1688080        -2.91855258E-06
   78.2956009        -7.02612988E-06
   78.4223938        -1.02554495E-05
   78.5491867        -1.25014531E-05
   78.6759796        -1.36774470E-05
   78.8027725        -1.37174729E-05
   78.9295654        -1.25780653E-05
   79.0563583        -1.02398008E-05
   79.1831512        -6.70840427E-06
   79.3099442        -2.01518264E-06
   79.4367371         3.78302775E-06
   79.5635300         1.06043435E-05
   79.6903229         1.83430930E-05
   79.8171158         2.68716158E-05
   79.9439087         3.60425693E-05
   80.0707016         4.56918569E-05
   80.1974945         5.56420455E-05
   80.3242874         6.57061755E-05
   80.4510803         7.56917943E-05
   80.5778732         8.54055688E-05
   80.7046585         9.46577202E-05
   80.8314514         1.03266495E-04
   80.9582443         1.11062829E-04
   81.0850372         1.17894335E-04
   81.2118301         1.23629361E-04
   81.3386230         1.28160304E-04
   81.4654160         1.31406501E-04
   81.5922089         1.33316309E-04
   81.7190018         1.33868671E-04
   81.8457947         1.33073714E-04
   81.9725876         1.30972461E-04
   82.0993805         1.27636027E-04
   82.2261734         1.23163714E-04
   82.3529663         1.17680429E-04
   82.4797592         1.11333349E-04
   82.6065521         1.04288301E-04
   82.7333450         9.67250526E-05
   82.8601379         8.88326831E-05
   82.9869308         8.08044424E-05
   83.1137238         7.28325977E-05
   83.2405167         6.51033042E-05
   83.3673096         5.77914070E-05
   83.4941025         5.10558530E-05
   83.6208954         4.50354200E-05
   83.7476883         3.98450611E-05
   83.8744812         3.55728880E-05
   84.0012741         3.22780797E-05
   84.1280670         2.99895455E-05
   84.2548599         2.87056027E-05
   84.3816528         2.83944737E-05
   84.5084381         2.89957934E-05
   84.6352310         3.04229216E-05
   84.7620239         3.25661349E-05
   84.8888168         3.52962634E-05
   85.0156097         3.84691666E-05
   85.1424026         4.19302960E-05
   85.2691956         4.55196969E-05
   85.3959885         4.90769453E-05
   85.5227814         5.24459174E-05
   85.6495743         5.54794169E-05
   85.7763672         5.80431770E-05
   85.9031601         6.00195308E-05
   86.0299530         6.13102748E-05
   86.1567459         6.18388513E-05
   86.2835388         6.15517565E-05
   86.4103317         6.04192610E-05
   86.5371246         5.84353547E-05
   86.6639175         5.56168961E-05
   86.7907104         5.20022768E-05
   86.9175034         4.76494570E-05
   87.0442963         4.26335246E-05
   87.1710892         3.70441558E-05
   87.2978821         3.09825155E-05
   87.4246750         2.45583378E-05
   87.5514679         1.78867940E-05
   87.6782608         1.10856181E-05
   87.8050537         4.27231544E-06
   87.9318466        -2.43837530E-06
   88.0586395        -8.93681681E-06
   88.1854324        -1.51202121E-05
   88.3122177        -2.08942911E-05
   88.4390106        -2.61744572E-05
   88.5658035        -3.08865237E-05
   88.6925964        -3.49672337E-05
   88.8193893        -3.83643965E-05
   88.9461823        -4.10366847E-05
   89.0729752        -4.29533357E-05
   89.1997681        -4.40935692E-05
   89.3265610        -4.44459693E-05
   89.4533539        -4.40078511E-05
   89.5801468        -4.27844316E-05
   89.7069397        -4.07884509E-05
   89.8337326        -3.80394231E-05
   89.9605255        -3.45634071E-05
   90.0873184        -3.03926790E-05
   90.2141113        -2.55657542E-05
   90.3409042        -2.01272160E-05
   90.4676971        -1.41281280E-05
   90.5944901        -7.62606942E-06
   90.7212830        -6.85320913E-07
   90.8480759         6.62296861E-06
   90.9748688         1.42207391E-05
   91.1016617         2.20233615E-05
   91.2284546         2.99399744E-05
   91.3552475         3.78742989E-05
   91.4820404         4.57257338E-05
   91.6088333         5.33906459E-05
   91.7356262         6.07643015E-05
   91.8624191         6.77426724E-05
   91.9892120         7.42248521E-05
   92.1159973         8.01153583E-05
   92.2427902         8.53267411E-05
   92.3695831         8.97819555E-05
   92.4963760         9.34167256E-05
   92.6231689         9.61817350E-05
   92.7499619         9.80443074E-05
   92.8767548         9.89899199E-05
   93.0035477         9.90229237E-05
   93.1303406         9.81670382E-05
   93.2571335         9.64650462E-05
   93.3839264         9.39779711E-05
   93.5107193         9.07837821E-05
   93.6375122         8.69756768E-05
   93.7643051         8.26595206E-05
   93.8910980         7.79515249E-05
   94.0178909         7.29751555E-05
   94.1446838         6.78582073E-05
   94.2714767         6.27297341E-05
   94.3982697         5.77168576E-05
   94.5250626         5.29420286E-05
   94.6518555         4.85201817E-05
   94.7786484         4.45564401E-05
   94.9054413         4.11437613E-05
   95.0322342         3.83614424E-05
   95.1590271         3.62736318E-05
   95.2858200         3.49282818E-05
   95.4126129         3.43566899E-05
   95.5394058         3.45732187E-05
   95.6661987         3.55754892E-05
   95.7929916         3.73446492E-05
   95.9197769         3.98464836E-05
   96.0465698         4.30320688E-05
   96.1733627         4.68391772E-05
   96.3001556         5.11937033E-05
   96.4269485         5.60111075E-05
   96.5537415         6.11982250E-05
   96.6805344         6.66547930E-05
   96.8073273         7.22754703E-05
   96.9341202         7.79514521E-05
   97.0609131         8.35724932E-05
   97.1877060         8.90284064E-05
   97.3144989         9.42111728E-05
   97.4412918         9.90163244E-05
   97.5680847         1.03344799E-04
   97.6948776         1.07104388E-04
   97.8216705         1.10211236E-04
   97.9484634         1.12591180E-04
   98.0752563         1.14180933E-04