  -4.50000000         0.00000000    
  -4.37320757         0.00000000    
  -4.24641466         0.00000000    
  -4.11962223         0.00000000    
  -3.99282932        -2.71012424E-25
  -3.86603665         4.42091434E-22
  -3.73924398         2.59980524E-21
  -3.61245155         5.59209597E-21
  -3.48565888        -1.85250471E-21
  -3.35886621        -4.32850011E-20
  -3.23207355        -1.18876969E-19
  -3.10528088        -1.02767847E-19
  -2.97848821         4.02220864E-19
  -2.85169554         2.12551420E-18
  -2.72490287         5.88767390E-18
  -2.59811020         1.18625897E-17
  -2.47131753         1.83746129E-17
  -2.34452486         2.07045772E-17
  -2.21773219         1.09092070E-17
  -2.09093952        -2.00394231E-17
  -1.96414697        -7.68975685E-17
  -1.83735430        -1.52243373E-16
  -1.71056163        -2.19342054E-16
  -1.58376896        -2.31767723E-16
  -1.45697629        -1.36270277E-16
  -1.33018374         9.86104905E-17
  -1.20339108         4.44755401E-16
  -1.07659841         7.85281969E-16
 -0.949805737         9.18503470E-16
 -0.823013067         6.14430818E-16
 -0.696220458        -2.77063736E-16
 -0.569427788        -1.69756276E-15
 -0.442635119        -3.28844723E-15
 -0.315842479        -4.39972418E-15
 -0.189049825        -4.23813994E-15
  -6.22571707E-02    -2.14228905E-15
   6.45354837E-02     2.08592621E-15
  0.191328138         7.90426837E-15
  0.318120778         1.39208959E-14
  0.444913447         1.80281053E-14
  0.571706116         1.77899823E-14
  0.698498726         1.10265699E-14
  0.825291395        -3.51655808E-15
  0.952084064        -2.55563325E-14
   1.07887673        -5.28729722E-14
   1.20566940        -8.12722692E-14
   1.33246195        -1.05026969E-13
   1.45925462        -1.17843533E-13
   1.58604729        -1.14281672E-13
   1.71283996        -9.14007639E-14
   1.83963263        -5.02609903E-14
   1.96642530         3.16640948E-15
   2.09321785         5.80749709E-14
   2.22001052         1.00089235E-13
   2.34680319         1.13636334E-13
   2.47359586         8.50481049E-14
   2.60038853         5.82558853E-15
   2.72718120        -1.24524482E-13
   2.85397387        -2.96538483E-13
   2.98076653        -4.89981211E-13
   3.10755920        -6.74259368E-13
   3.23435187        -8.10127735E-13
   3.36114454        -8.52861022E-13
   3.48793697        -7.57169772E-13
   3.61472964        -4.84100769E-13
   3.74152231        -9.78740218E-15
   3.86831498         6.64753734E-13
   3.99510765         1.50443330E-12
   4.12190056         2.43380923E-12
   4.24869299         3.33615427E-12
   4.37548542         4.05970526E-12
   4.50227833         4.43156666E-12
   4.62907076         4.27800287E-12
   4.75586367         3.44824169E-12
   4.88265610         1.83781614E-12
   5.00944901        -5.92590647E-13
   5.13624144        -3.80605226E-12
   5.26303434        -7.68795878E-12
   5.38982677        -1.20545822E-11
   5.51661968        -1.66707759E-11
   5.64341211        -2.12751986E-11
   5.77020502        -2.56107149E-11
   5.89699745        -2.94573567E-11
   6.02379036        -3.26641145E-11
   6.15058279        -3.51748908E-11
   6.27737522        -3.70432574E-11
   6.40416813        -3.84307378E-11
   6.53096056        -3.95856403E-11
   6.65775347        -4.08034925E-11
   6.78454590        -4.23752110E-11
   6.91133881        -4.45353754E-11
   7.03813124        -4.74261047E-11
   7.16492414        -5.10920369E-11
   7.29171658        -5.55183781E-11
   7.41850948        -6.07155853E-11
   7.54530191        -6.68458899E-11
   7.67209482        -7.43794817E-11
   7.79888725        -8.42664619E-11
   7.92567968        -9.81146969E-11
   8.05247211        -1.18374505E-10
   8.17926502        -1.48544010E-10
   8.30605793        -1.93418878E-10
   8.43285084        -2.59413435E-10
   8.55964279        -3.54966223E-10
   8.68643570        -4.91018448E-10
   8.81322861        -6.81506851E-10
   8.94002151        -9.43762513E-10
   9.06681347        -1.29864552E-09
   9.19360638        -1.77020543E-09
   9.32039928        -2.38461761E-09
   9.44719219        -3.16815152E-09
   9.57398415        -4.14395940E-09
   9.70077705        -5.32755884E-09
   9.82756996        -6.72099354E-09
   9.95436192        -8.30582181E-09
   10.0811548        -1.00352606E-08
   10.2079477        -1.18260113E-08
   10.3347406        -1.35504745E-08
   10.4615326        -1.50302331E-08
   10.5883255        -1.60317448E-08
   10.7151184        -1.62653357E-08
   10.8419113        -1.53883768E-08
   10.9687033        -1.30136018E-08
   11.0954962        -8.72310757E-09
   11.2222891        -2.08841255E-09
   11.3490820         7.30356131E-09
   11.4758739         1.98192129E-08
   11.6026669         3.57429073E-08
   11.7294598         5.52395001E-08
   11.8562517         7.83172780E-08
   11.9830446         1.04795014E-07
   12.1098375         1.34276959E-07
   12.2366304         1.66140964E-07
   12.3634224         1.99544843E-07
   12.4902153         2.33456859E-07
   12.6170082         2.66715546E-07
   12.7438011         2.98124377E-07
   12.8705931         3.26585507E-07
   12.9973860         3.51274991E-07
   13.1241789         3.71861546E-07
   13.2509708         3.88767063E-07
   13.3777637         4.03464668E-07
   13.5045567         4.18810373E-07
   13.6313496         4.39395848E-07
   13.7581415         4.71912387E-07
   13.8849344         5.25511837E-07
   14.0117273         6.12146096E-07
   14.1385202         7.46867727E-07
   14.2653122         9.48075410E-07
   14.3921051         1.23768007E-06
   14.5188980         1.64117694E-06
   14.6456909         2.18761215E-06
   14.7724829         2.90942012E-06
   14.8992758         3.84212944E-06
   15.0260687         5.02394187E-06
   15.1528606         6.49515869E-06
   15.2796535         8.29749479E-06
   15.4064465         1.04732562E-05
   15.5332394         1.30644339E-05
   15.6600313         1.61117059E-05
   15.7868242         1.96533692E-05
   15.9136171         2.37242803E-05
   16.0404091         2.83547615E-05
   16.1672020         3.35695440E-05
   16.2939949         3.93867813E-05
   16.4207878         4.58171016E-05
   16.5475807         5.28628480E-05
   16.6743736         6.05173154E-05
   16.8011646         6.87642460E-05
   16.9279575         7.75774315E-05
   17.0547504         8.69204014E-05
   17.1815434         9.67464148E-05
   17.3083363         1.06998421E-04
   17.4351292         1.17609430E-04
   17.5619221         1.28502783E-04
   17.6887150         1.39592783E-04
   17.8155060         1.50785345E-04
   17.9422989         1.61978882E-04
   18.0690918         1.73065375E-04
   18.1958847         1.83931552E-04
   18.3226776         1.94460154E-04
   18.4494705         2.04531607E-04
   18.5762634         2.14025582E-04
   18.7030544         2.22823015E-04
   18.8298473         2.30808058E-04
   18.9566402         2.37870059E-04
   19.0834332         2.43906150E-04
   19.2102261         2.48823169E-04
   19.3370190         2.52540194E-04
   19.4638119         2.54990882E-04
   19.5906048         2.56125408E-04
   19.7173958         2.55912688E-04
   19.8441887         2.54341780E-04
   19.9709816         2.51423509E-04
   20.0977745         2.47191143E-04
   20.2245674         2.41700676E-04
   20.3513603         2.35030879E-04
   20.4781532         2.27282537E-04
   20.6049442         2.18576432E-04
   20.7317371         2.09051854E-04
   20.8585300         1.98863738E-04
   20.9853230         1.88179038E-04
   21.1121159         1.77173686E-04
   21.2389088         1.66027778E-04
   21.3657017         1.54921800E-04
   21.4924946         1.44031874E-04
   21.6192856         1.33525595E-04
   21.7460785         1.23557766E-04
   21.8728714         1.14266761E-04
   21.9996643         1.05770909E-04
   22.1264572         9.81664562E-05
   22.2532501         9.15249984E-05
   22.3800430         8.58928470E-05
   22.5068340         8.12905491E-05
   22.6336269         7.77136520E-05
   22.7604198         7.51338303E-05
   22.8872128         7.35013673E-05
   23.0140057         7.27477091E-05
   23.1407986         7.27889710E-05
   23.2675915         7.35294743E-05
   23.3943844         7.48657621E-05
   23.5211754         7.66907833E-05
   23.6479683         7.88974066E-05
   23.7747612         8.13825463E-05
   23.9015541         8.40503490E-05
   24.0283470         8.68149000E-05
   24.1551399         8.96025231E-05
   24.2819328         9.23535263E-05
   24.4087238         9.50229223E-05
   24.5355167         9.75807998E-05
   24.6623096         1.00012134E-04
   24.7891026         1.02315702E-04
   24.9158955         1.04502535E-04
   25.0426884         1.06594482E-04
   25.1694813         1.08621738E-04
   25.2962742         1.10620858E-04
   25.4230652         1.12632071E-04
   25.5498581         1.14697061E-04
   25.6766510         1.16856769E-04
   25.8034439         1.19149190E-04
   25.9302368         1.21607714E-04
   26.0570297         1.24259459E-04
   26.1838226         1.27124164E-04
   26.3106136         1.30213390E-04
   26.4374065         1.33530179E-04
   26.5641994         1.37068375E-04
   26.6909924         1.40813165E-04
   26.8177853         1.44741309E-04
   26.9445782         1.48821811E-04
   27.0713711         1.53016619E-04
   27.1981640         1.57281960E-04
   27.3249550         1.61568867E-04
   27.4517479         1.65825084E-04
   27.5785408         1.69996041E-04
   27.7053337         1.74026311E-04
   27.8321266         1.77861308E-04
   27.9589195         1.81448486E-04
   28.0857124         1.84739081E-04
   28.2125034         1.87689468E-04
   28.3392963         1.90262770E-04
   28.4660892         1.92430060E-04
   28.5928822         1.94171764E-04
   28.7196751         1.95478773E-04
   28.8464680         1.96353358E-04
   28.9732609         1.96809648E-04
   29.1000538         1.96874491E-04
   29.2268448         1.96587294E-04
   29.3536377         1.95999775E-04
   29.4804306         1.95175176E-04
   29.6072235         1.94187669E-04
   29.7340164         1.93120650E-04
   29.8608093         1.92065520E-04
   29.9876022         1.91119048E-04
   30.1143932         1.90381630E-04
   30.2411861         1.89954488E-04
   30.3679790         1.89937113E-04
   30.4947720         1.90424747E-04
   30.6215649         1.91505518E-04
   30.7483578         1.93258064E-04
   30.8751507         1.95749337E-04
   31.0019417         1.99032234E-04
   31.1287346         2.03144344E-04
   31.2555275         2.08106547E-04
   31.3823204         2.13922380E-04
   31.5091133         2.20577494E-04
   31.6359062         2.28040328E-04
   31.7626991         2.36262291E-04
   31.8894920         2.45179195E-04
   32.0162849         2.54712795E-04
   32.1430779         2.64772651E-04
   32.2698708         2.75258149E-04
   32.3966637         2.86061637E-04
   32.5234528         2.97070073E-04
   32.6502457         3.08168004E-04
   32.7770386         3.19240033E-04
   32.9038315         3.30172770E-04
   33.0306244         3.40857747E-04
   33.1574173         3.51193157E-04
   33.2842102         3.61084618E-04
   33.4110031         3.70448222E-04
   33.5377960         3.79209581E-04
   33.6645889         3.87305947E-04
   33.7913818         3.94685921E-04
   33.9181747         4.01309750E-04
   34.0449677         4.07148123E-04
   34.1717606         4.12182417E-04
   34.2985535         4.16404102E-04
   34.4253426         4.19812597E-04
   34.5521355         4.22415062E-04
   34.6789284         4.24225524E-04
   34.8057213         4.25262493E-04
   34.9325142         4.25549399E-04
   35.0593071         4.25111619E-04
   35.1861000         4.23977734E-04
   35.3128929         4.22176847E-04
   35.4396858         4.19738033E-04
   35.5664787         4.16690455E-04
   35.6932716         4.13062662E-04
   35.8200645         4.08881227E-04
   35.9468575         4.04172402E-04
   36.0736504         3.98960314E-04
   36.2004433         3.93268274E-04
   36.3272324         3.87117354E-04
   36.4540253         3.80528596E-04
   36.5808182         3.73521412E-04
   36.7076111         3.66114080E-04
   36.8344040         3.58324760E-04
   36.9611969         3.50170769E-04
   37.0879898         3.41669656E-04
   37.2147827         3.32838361E-04
   37.3415756         3.23694578E-04
   37.4683685         3.14255944E-04
   37.5951614         3.04540648E-04
   37.7219543         2.94567784E-04
   37.8487473         2.84356647E-04
   37.9755402         2.73927319E-04
   38.1023293         2.63300899E-04
   38.2291222         2.52499012E-04
   38.3559151         2.41544476E-04
   38.4827080         2.30460690E-04
   38.6095009         2.19272362E-04
   38.7362938         2.08005178E-04
   38.8630867         1.96686058E-04
   38.9898796         1.85343146E-04
   39.1166725         1.74005778E-04
   39.2434654         1.62704702E-04
   39.3702583         1.51472152E-04
   39.4970512         1.40341857E-04
   39.6238441         1.29349559E-04
   39.7506371         1.18532786E-04
   39.8774300         1.07931424E-04
   40.0042191         9.75877338E-05
   40.1310120         8.75465194E-05
   40.2578049         7.78552203E-05
   40.3845978         6.85640189E-05
   40.5113907         5.97256003E-05
   40.6381836         5.13949635E-05
   40.7649765         4.36293012E-05
   40.8917694         3.64872758E-05
   41.0185623         3.00286556E-05
   41.1453552         2.43132854E-05
   41.2721481         1.94001386E-05
   41.3989410         1.53462388E-05
   41.5257339         1.22050296E-05
   41.6525269         1.00251173E-05
   41.7793198         8.84835208E-06
   41.9061089         8.70831627E-06
   42.0329018         9.62868398E-06
   42.1596947         1.16213960E-05
   42.2864876         1.46852926E-05
   42.4132805         1.88047834E-05
   42.5400734         2.39485871E-05
   42.6668663         3.00689680E-05
   42.7936592         3.71011192E-05
   42.9204521         4.49631480E-05
   43.0472450         5.35563122E-05
   43.1740379         6.27657937E-05
   43.3008308         7.24621787E-05
   43.4276237         8.25029638E-05
   43.5544167         9.27349538E-05
   43.6812096         1.02996783E-04
   43.8079987         1.13122027E-04
   43.9347916         1.22942263E-04
   44.0615845         1.32290661E-04
   44.1883774         1.41005527E-04
   44.3151703         1.48934065E-04
   44.4419632         1.55935675E-04
   44.5687561         1.61885619E-04
   44.6955490         1.66677972E-04
   44.8223419         1.70228508E-04
   44.9491348         1.72476881E-04
   45.0759277         1.73388442E-04
   45.2027206         1.72955421E-04
   45.3295135         1.71197273E-04
   45.4563065         1.68160957E-04
   45.5830994         1.63919743E-04
   45.7098885         1.58572162E-04
   45.8366814         1.52239794E-04
   45.9634743         1.45064943E-04
   46.0902672         1.37207389E-04
   46.2170601         1.28841129E-04
   46.3438530         1.20150573E-04
   46.4706459         1.11326401E-04
   46.5974388         1.02561564E-04
   46.7242317         9.40469836E-05
   46.8510246         8.59676074E-05
   46.9778175         7.84982331E-05
   47.1046104         7.18000811E-05
   47.2314034         6.60171136E-05
   47.3581963         6.12733129E-05
   47.4849892         5.76699967E-05
   47.6117783         5.52838756E-05
   47.7385712         5.41656591E-05
   47.8653641         5.43391361E-05
   47.9921570         5.58010106E-05
   48.1189499         5.85210873E-05
   48.2457428         6.24433233E-05
   48.3725357         6.74872208E-05
   48.4993286         7.35498106E-05
   48.6261215         8.05081654E-05
   48.7529144         8.82220847E-05
   48.8797073         9.65374857E-05
   49.0065002         1.05289670E-04
   49.1332932         1.14307026E-04
   49.2600861         1.23414778E-04
   49.3868790         1.32438669E-04
   49.5136681         1.41208526E-04
   49.6404610         1.49561791E-04
   49.7672539         1.57346731E-04
   49.8940468         1.64425350E-04
   50.0208397         1.70676140E-04
   50.1476326         1.75996131E-04
   50.2744255         1.80302959E-04
   50.4012184         1.83535958E-04
   50.5280113         1.85657133E-04
   50.6548042         1.86651538E-04
   50.7815971         1.86527046E-04
   50.9083900         1.85313882E-04
   51.0351830         1.83063356E-04
   51.1619759         1.79846495E-04
   51.2887688         1.75752357E-04
   51.4155579         1.70885498E-04
   51.5423508         1.65363890E-04
   51.6691437         1.59315838E-04
   51.7959366         1.52877226E-04
   51.9227295         1.46188366E-04
   52.0495224         1.39391006E-04
   52.1763153         1.32625020E-04
   52.3031082         1.26025538E-04
   52.4299011         1.19720047E-04
   52.5566940         1.13825801E-04
   52.6834869         1.08447508E-04
   52.8102798         1.03675338E-04
   52.9370728         9.95832743E-05
   53.0638657         9.62280028E-05
   53.1906586         9.36481301E-05
   53.3174477         9.18638470E-05
   53.4442406         9.08772345E-05
   53.5710335         9.06726855E-05
   53.6978264         9.12182732E-05
   53.8246193         9.24669439E-05
   53.9514122         9.43584600E-05
   54.0782051         9.68213571E-05
   54.2049980         9.97752140E-05
   54.3317909         1.03132792E-04
   54.4585838         1.06802559E-04
   54.5853767         1.10690860E-04
   54.7121696         1.14704206E-04
   54.8389626         1.18751392E-04
   54.9657555         1.22745274E-04
   55.0925484         1.26604602E-04
   55.2193375         1.30255197E-04
   55.3461304         1.33631198E-04
   55.4729233         1.36675764E-04
   55.5997162         1.39341370E-04
   55.7265091         1.41590252E-04
   55.8533020         1.43394354E-04
   55.9800949         1.44734746E-04
   56.1068878         1.45601472E-04
   56.2336807         1.45992817E-04
   56.3604736         1.45914804E-04
   56.4872665         1.45380254E-04
   56.6140594         1.44408012E-04
   56.7408524         1.43022116E-04
   56.8676453         1.41250974E-04
   56.9944382         1.39126598E-04
   57.1212273         1.36683826E-04
   57.2480202         1.33959649E-04
   57.3748131         1.30992805E-04
   57.5016060         1.27822990E-04
   57.6283989         1.24490805E-04
   57.7551918         1.21037017E-04
   57.8819847         1.17502423E-04
   58.0087776         1.13927468E-04
   58.1355705         1.10351895E-04
   58.2623634         1.06814492E-04
   58.3891563         1.03352781E-04
   58.5159492         1.00002544E-04
   58.6427422         9.67976084E-05
   58.7695351         9.37692821E-05
   58.8963280         9.09459122E-05
   59.0231171         8.83523244E-05
   59.1499100         8.60093496E-05
   59.2767029         8.39332206E-05
   59.4034958         8.21350695E-05
   59.5302887         8.06204480E-05
   59.6570816         7.93889631E-05
   59.7838745         7.84340518E-05
   59.9106674         7.77429304E-05
   60.0374603         7.72967687E-05
   60.1642532         7.70711049E-05
   60.2910461         7.70363913E-05
   60.4178391         7.71588893E-05
   60.5446320         7.74018918E-05
   60.6714249         7.77268797E-05
   60.7982178         7.80949849E-05
   60.9250069         7.84686708E-05
   61.0517998         7.88132456E-05
   61.1785927         7.90984486E-05
   61.3053856         7.92999490E-05
   61.4321785         7.94007137E-05
   61.5589714         7.93920190E-05
   61.6857643         7.92742576E-05
   61.8125572         7.90571721E-05
   61.9393501         7.87598765E-05
   62.0661430         7.84102449E-05
   62.1929359         7.80439877E-05
   62.3197289         7.77032328E-05
   62.4465218         7.74348737E-05
   62.5733147         7.72883795E-05
   62.7001076         7.73136708E-05
   62.8268967         7.75587614E-05
   62.9536896         7.80674382E-05
   63.0804825         7.88768448E-05
   63.2072754         8.00155613E-05
   63.3340683         8.15017702E-05
   63.4608612         8.33419035E-05
   63.5876541         8.55298349E-05
   63.7144470         8.80465959E-05
   63.8412399         9.08606889E-05
   63.9680328         9.39290258E-05
   64.0948257         9.71982372E-05
   64.2216187         1.00606776E-04
   64.3484116         1.04087048E-04
   64.4752045         1.07568048E-04
   64.6019974         1.10978130E-04
   64.7287903         1.14247829E-04
   64.8555832         1.17312607E-04
   64.9823761         1.20115488E-04
   65.1091690         1.22609243E-04
   65.2359619         1.24758342E-04
   65.3627548         1.26540268E-04
   65.4895477         1.27946187E-04
   65.6163330         1.28980988E-04
   65.7431259         1.29663065E-04
   65.8699188         1.30022774E-04
   65.9967117         1.30101165E-04
   66.1235046         1.29947657E-04
   66.2502975         1.29617823E-04
   66.3770905         1.29170658E-04
   66.5038834         1.28666143E-04
   66.6306763         1.28162355E-04
   66.7574692         1.27713254E-04
   66.8842621         1.27366409E-04
   67.0110550         1.27161155E-04
   67.1378479         1.27127423E-04
   67.2646408         1.27284686E-04
   67.3914337         1.27641862E-04
   67.5182266         1.28197644E-04
   67.6450195         1.28941101E-04
   67.7718124         1.29853026E-04
   67.8986053         1.30907240E-04
   68.0253983         1.32072499E-04
   68.1521912         1.33313995E-04
   68.2789841         1.34595437E-04
   68.4057770         1.35880473E-04
   68.5325699         1.37134310E-04
   68.6593628         1.38324773E-04
   68.7861557         1.39423384E-04
   68.9129486         1.40405580E-04
   69.0397415         1.41251177E-04
   69.1665344         1.41943965E-04
   69.2933273         1.42471094E-04
   69.4201126         1.42822551E-04
   69.5469055         1.42990000E-04
   69.6736984         1.42965786E-04
   69.8004913         1.42742312E-04
   69.9272842         1.42310790E-04
   70.0540771         1.41661018E-04
   70.1808701         1.40780845E-04
   70.3076630         1.39656229E-04
   70.4344559         1.38271585E-04
   70.5612488         1.36610295E-04
   70.6880417         1.34655726E-04
   70.8148346         1.32392553E-04
   70.9416275         1.29807944E-04
   71.0684204         1.26893283E-04
   71.1952133         1.23645543E-04
   71.3220062         1.20068813E-04
   71.4487991         1.16175543E-04
   71.5755920         1.11987603E-04
   71.7023849         1.07536951E-04
   71.8291779         1.02865852E-04
   71.9559708         9.80267796E-05
   72.0827637         9.30817478E-05
   72.2095566         8.81012093E-05
   72.3363495         8.31624857E-05
   72.4631424         7.83478172E-05
   72.5899353         7.37420414E-05
   72.7167282         6.94300761E-05
   72.8435211         6.54941759E-05
   72.9703140         6.20112260E-05
   73.0971069         5.90500058E-05
   73.2238922         5.66688068E-05
   73.3506851         5.49130818E-05
   73.4774780         5.38136883E-05
   73.6042709         5.33854363E-05
   73.7310638         5.36264415E-05
   73.8578568         5.45176736E-05
   73.9846497         5.60234803E-05
   74.1114426         5.80925553E-05
   74.2382355         6.06596295E-05
   74.3650284         6.36475816E-05
   74.4918213         6.69702640E-05
   74.6186142         7.05352795E-05
   74.7454071         7.42474367E-05
   74.8722000         7.80119590E-05
   74.9989929         8.17377004E-05
   75.1257858         8.53402889E-05
   75.2525787         8.87450151E-05
   75.3793716         9.18891601E-05
   75.5061646         9.47237058E-05
   75.6329575         9.72149355E-05
   75.7597504         9.93447320E-05
   75.8865433         1.01110563E-04
   76.0133362         1.02524878E-04
   76.1401291         1.03613391E-04
   76.2669220         1.04413280E-04
   76.3937149         1.04970735E-04
   76.5205078         1.05338237E-04
   76.6473007         1.05571577E-04
   76.7740936         1.05727107E-04
   76.9008865         1.05858671E-04
   77.0276718         1.06015199E-04
   77.1544647         1.06238185E-04
   77.2812576         1.06560066E-04
   77.4080505         1.07002728E-04
   77.5348434         1.07576794E-04
   77.6616364         1.08281507E-04
   77.7884293         1.09105182E-04
   77.9152222         1.10026260E-04
   78.0420151         1.11014800E-04
   78.1688080         1.12034526E-04
   78.2956009         1.13044793E-04
   78.4223938         1.14003087E-04
   78.5491867         1.14867406E-04
   78.6759796         1.15598341E-04
   78.8027725         1.16161347E-04
   78.9295654         1.16528492E-04
   79.0563583         1.16679927E-04
   79.1831512         1.16605028E-04
   79.3099442         1.16303148E-04
   79.4367371         1.15783572E-04
   79.5635300         1.15065530E-04
   79.6903229         1.14177230E-04
   79.8171158         1.13154987E-04
   79.9439087         1.12041555E-04
   80.0707016         1.10884619E-04
   80.1974945         1.09734756E-04
   80.3242874         1.08643711E-04
   80.4510803         1.07662236E-04
   80.5778732         1.06838379E-04
   80.7046585         1.06215848E-04
   80.8314514         1.05832230E-04
   80.9582443         1.05718042E-04
   81.0850372         1.05895393E-04
   81.2118301         1.06377389E-04
   81.3386230         1.07167783E-04
   81.4654160         1.08260916E-04
   81.5922089         1.09641944E-04
   81.7190018         1.11287496E-04
   81.8457947         1.13166599E-04
   81.9725876         1.15241884E-04
   82.0993805         1.17470860E-04
   82.2261734         1.19807344E-04
   82.3529663         1.22203142E-04
   82.4797592         1.24609593E-04
   82.6065521         1.26979168E-04
   82.7333450         1.29266948E-04
   82.8601379         1.31432083E-04
   82.9869308         1.33438953E-04
   83.1137238         1.35258044E-04
   83.2405167         1.36866758E-04
   83.3673096         1.38249612E-04
   83.4941025         1.39398355E-04
   83.6208954         1.40311473E-04
   83.7476883         1.40993623E-04
   83.8744812         1.41454511E-04
   84.0012741         1.41707831E-04
   84.1280670         1.41769735E-04
   84.2548599         1.41657467E-04
   84.3816528         1.41387864E-04
   84.5084381         1.40975841E-04
   84.6352310         1.40433171E-04
   84.7620239         1.39767246E-04
   84.8888168         1.38980220E-04
   85.0156097         1.38068412E-04
   85.1424026         1.37022202E-04
   85.2691956         1.35826296E-04
   85.3959885         1.34460177E-04
   85.5227814         1.32899455E-04
   85.6495743         1.31117282E-04
   85.7763672         1.29085849E-04
   85.9031601         1.26778585E-04
   86.0299530         1.24172133E-04
   86.1567459         1.21248195E-04
   86.2835388         1.17995660E-04
   86.4103317         1.14412171E-04
   86.5371246         1.10505585E-04
   86.6639175         1.06295025E-04
   86.7907104         1.01811434E-04
   86.9175034         9.70976034E-05
   87.0442963         9.22079416E-05
   87.1710892         8.72071687E-05
   87.2978821         8.21689173E-05
   87.4246750         7.71736159E-05
   87.5514679         7.23060439E-05
   87.6782608         6.76526615E-05
   87.8050537         6.32987067E-05
   87.9318466         5.93253972E-05
   88.0586395         5.58072461E-05
   88.1854324         5.28094060E-05
   88.3122177         5.03856536E-05
   88.4390106         4.85766068E-05
   88.5658035         4.74084009E-05
   88.6925964         4.68920407E-05
   88.8193893         4.70232990E-05
   88.9461823         4.77832109E-05
   89.0729752         4.91391402E-05
   89.1997681         5.10464124E-05
   89.3265610         5.34502396E-05
   89.4533539         5.62881542E-05
   89.5801468         5.94921548E-05
   89.7069397         6.29915448E-05
   89.8337326         6.67149216E-05
   89.9605255         7.05925413E-05
   90.0873184         7.45581929E-05
   90.2141113         7.85506854E-05
   90.3409042         8.25149764E-05
   90.4676971         8.64030371E-05
   90.5944901         9.01741587E-05
   90.7212830         9.37946752E-05
   90.8480759         9.72377602E-05
   90.9748688         1.00482517E-04
   91.1016617         1.03513034E-04
   91.2284546         1.06317479E-04
   91.3552475         1.08887121E-04
   91.4820404         1.11215406E-04
   91.6088333         1.13297465E-04
   91.7356262         1.15129587E-04
   91.8624191         1.16709212E-04
   91.9892120         1.18035037E-04
   92.1159973         1.19107230E-04
   92.2427902         1.19928234E-04
   92.3695831         1.20503355E-04
   92.4963760         1.20841643E-04
   92.6231689         1.20956669E-04
   92.7499619         1.20867349E-04
   92.8767548         1.20598343E-04
   93.0035477         1.20180426E-04
   93.1303406         1.19650234E-04
   93.2571335         1.19049735E-04
   93.3839264         1.18425334E-04
   93.5107193         1.17826297E-04
   93.6375122         1.17303171E-04
   93.7643051         1.16905554E-04
   93.8910980         1.16680108E-04
   94.0178909         1.16668256E-04
   94.1446838         1.16903633E-04
   94.2714767         1.17410375E-04
   94.3982697         1.18201002E-04
   94.5250626         1.19275086E-04
   94.6518555         1.20618366E-04
   94.7786484         1.22202269E-04
   94.9054413         1.23984559E-04
   95.0322342         1.25910039E-04
   95.1590271         1.27912484E-04
   95.2858200         1.29916836E-04
   95.4126129         1.31842055E-04
   95.5394058         1.33604233E-04
   95.6661987         1.35120164E-04
   95.7929916         1.36310773E-04
   95.9197769         1.37104682E-04
   96.0465698         1.37441646E-04
   96.1733627         1.37275259E-04
   96.3001556         1.36575749E-04
   96.4269485         1.35331415E-04
   96.5537415         1.33550071E-04
   96.6805344         1.31259003E-04
   96.8073273         1.28504558E-04
   96.9341202         1.25350576E-04
   97.0609131         1.21876474E-04
   97.1877060         1.18174015E-04
   97.3144989         1.14344301E-04
   97.4412918         1.10493638E-04
   97.5680847         1.06729582E-04
   97.6948776         1.03156926E-04
   97.8216705         9.98735995E-05
   97.9484634         9.69668545E-05
   98.0752563         9.45101929E-05