  -4.50000000         0.00000000    
  -4.37320757         0.00000000    
  -4.24641466         0.00000000    
  -4.11962223         0.00000000    
  -3.99282932         0.00000000    
  -3.86603665         0.00000000    
  -3.73924398         1.70190809E-33
  -3.61245155        -9.78160367E-33
  -3.48565888        -2.81302287E-31
  -3.35886621        -1.61387588E-30
  -3.23207355        -7.28794084E-30
  -3.10528088         1.67355217E-29
  -2.97848821         1.42480983E-28
  -2.85169554         4.87368321E-28
  -2.72490287         1.12137194E-27
  -2.59811020         1.87937752E-27
  -2.47131753         2.05911301E-27
  -2.34452486         5.82514364E-28
  -2.21773219        -2.41181434E-27
  -2.09093952        -1.17718260E-27
  -1.96414697         2.35865174E-26
  -1.83735430         1.14581134E-25
  -1.71056163         3.43613907E-25
  -1.58376896         8.02002786E-25
  -1.45697629         1.56230550E-24
  -1.33018374         2.60405647E-24
  -1.20339108         3.71547885E-24
  -1.07659841         4.41594632E-24
 -0.949805737         3.98122716E-24
 -0.823013067         1.67452806E-24
 -0.696220458        -2.73805495E-24
 -0.569427788        -8.20516158E-24
 -0.442635119        -1.15316997E-23
 -0.315842479        -6.85238424E-24
 -0.189049825         1.39767109E-23
  -6.22571707E-02     5.94676735E-23
   6.45354837E-02     1.34748499E-22
  0.191328138         2.36294739E-22
  0.318120778         3.46443122E-22
  0.444913447         4.30050968E-22
  0.571706116         4.36401437E-22
  0.698498726         3.09306504E-22
  0.825291395         6.81568959E-24
  0.952084064        -4.71232638E-22
   1.07887673        -1.05404732E-21
   1.20566940        -1.58003745E-21
   1.33246195        -1.80036466E-21
   1.45925462        -1.41942063E-21
   1.58604729        -1.79638396E-22
   1.71283996         2.01429788E-21
   1.83963263         4.95395238E-21
   1.96642530         8.00850258E-21
   2.09321785         1.00818292E-20
   2.22001052         9.69843096E-21
   2.34680319         5.25305895E-21
   2.47359586        -4.57905296E-21
   2.60038853        -2.03276631E-20
   2.72718120        -4.12206427E-20
   2.85397387        -6.48365361E-20
   2.98076653        -8.70735097E-20
   3.10755920        -1.02548721E-19
   3.23435187        -1.05452158E-19
   3.36114454        -9.07591228E-20
   3.48793697        -5.55902918E-20
   3.61472964        -4.35589958E-22
   3.74152231         7.00386749E-20
   3.86831498         1.46797520E-19
   3.99510765         2.16920904E-19
   4.12190056         2.64690765E-19
   4.24869299         2.73142560E-19
   4.37548542         2.25984425E-19
   4.50227833         1.09922726E-19
   4.62907076        -8.24234169E-20
   4.75586367        -3.48825244E-19
   4.88265610        -6.73033748E-19
   5.00944901        -1.02031808E-18
   5.13624144        -1.33444664E-18
   5.26303434        -1.53838823E-18
   5.38982677        -1.54130911E-18
   5.51661968        -1.25380181E-18
   5.64341211        -6.11459353E-19
   5.77020502         3.96015329E-19
   5.89699745         1.69632162E-18
   6.02379036         3.11559191E-18
   6.15058279         4.37867768E-18
   6.27737522         5.13632880E-18
   6.40416813         5.02153102E-18
   6.53096056         3.72935000E-18
   6.65775347         1.10596354E-18
   6.78454590        -2.77420289E-18
   6.91133881        -7.56657758E-18
   7.03813124        -1.26689957E-17
   7.16492414        -1.72971870E-17
   7.29171658        -2.06162393E-17
   7.41850948        -2.19044011E-17
   7.54530191        -2.07125976E-17
   7.67209482        -1.69778341E-17
   7.79888725        -1.10542788E-17
   7.92567968        -3.64234093E-18
   8.05247211         4.37923809E-18
   8.17926502         1.21855409E-17
   8.30605793         1.92449360E-17
   8.43285084         2.54948149E-17
   8.55964279         3.13834905E-17
   8.68643570         3.77267614E-17
   8.81322861         4.53637329E-17
   8.94002151         5.46463207E-17
   9.06681347         6.48537327E-17
   9.19360638         7.36777779E-17
   9.32039928         7.69635179E-17
   9.44719219         6.88988378E-17
   9.57398415         4.28112951E-17
   9.70077705        -7.35882703E-18
   9.82756996        -8.49846420E-17
   9.95436192        -1.88340396E-16
   10.0811548        -3.08311787E-16
   10.2079477        -4.26854498E-16
   10.3347406        -5.16900850E-16
   10.4615326        -5.44343288E-16
   10.5883255        -4.72473284E-16
   10.7151184        -2.68822026E-16
   10.8419113         8.62204234E-17
   10.9687033         5.90238339E-16
   11.0954962         1.21082936E-15
   11.2222891         1.88088367E-15
   11.3490820         2.49905446E-15
   11.4758739         2.93685148E-15
   11.6026669         3.05283295E-15
   11.7294598         2.71310730E-15
   11.8562517         1.81595436E-15
   11.9830446         3.17136732E-16
   12.1098375        -1.74834938E-15
   12.2366304        -4.25250308E-15
   12.3634224        -6.97229961E-15
   12.4902153        -9.60177237E-15
   12.6170082        -1.17784963E-14
   12.7438011        -1.31223937E-14
   12.8705931        -1.32825320E-14
   12.9973860        -1.19858186E-14
   13.1241789        -9.08069379E-15
   13.2509708        -4.56924893E-15
   13.3777637         1.37732798E-15
   13.5045567         8.42253056E-15
   13.6313496         1.60870564E-14
   13.7581415         2.37864995E-14
   13.8849344         3.08781965E-14
   14.0117273         3.67100047E-14
   14.1385202         4.06640020E-14
   14.2653122         4.21901148E-14
   14.3921051         4.08278249E-14
   14.5188980         3.62180751E-14
   14.6456909         2.81111262E-14
   14.7724829         1.63785679E-14
   14.8992758         1.03803634E-15
   15.0260687        -1.77031326E-14
   15.1528606        -3.93841352E-14
   15.2796535        -6.32127204E-14
   15.4064465        -8.79868823E-14
   15.5332394        -1.12037333E-13
   15.6600313        -1.33216300E-13
   15.7868242        -1.48958428E-13
   15.9136171        -1.56433677E-13
   16.0404091        -1.52801640E-13
   16.1672020        -1.35559194E-13
   16.2939949        -1.02955743E-13
   16.4207878        -5.44298425E-14
   16.5475807         8.99338672E-15
   16.6743736         8.44138263E-14
   16.8011646         1.66944908E-13
   16.9279575         2.49834523E-13
   17.0547504         3.24850363E-13
   17.1815434         3.82929555E-13
   17.3083363         4.15054818E-13
   17.4351292         4.13284587E-13
   17.5619221         3.71832556E-13
   17.6887150         2.88074523E-13
   17.8155060         1.63355481E-13
   17.9422989         3.48218590E-15
   18.0690918        -1.81185592E-13
   18.1958847        -3.76093525E-13
   18.3226776        -5.63303473E-13
   18.4494705        -7.22713501E-13
   18.5762634        -8.33604724E-13
   18.7030544        -8.76404147E-13
   18.8298473        -8.34536596E-13
   18.9566402        -6.96237881E-13
   19.0834332        -4.56207717E-13
   19.2102261        -1.16999116E-13
   19.3370190         3.09950904E-13
   19.4638119         8.03725576E-13
   19.5906048         1.33384482E-12
   19.7173958         1.86076978E-12
   19.8441887         2.33707801E-12
   19.9709816         2.70938458E-12
   20.0977745         2.92107701E-12
   20.2245674         2.91589821E-12
   20.3513603         2.64234294E-12
   20.4781532         2.05875724E-12
   20.6049442         1.13890364E-12
   20.7317371        -1.22355888E-13
   20.8585300        -1.70374012E-12
   20.9853230        -3.55317056E-12
   21.1121159        -5.58496955E-12
   21.2389088        -7.67925827E-12
   21.3657017        -9.68410855E-12
   21.4924946        -1.14208287E-11
   21.6192856        -1.26925597E-11
   21.7460785        -1.32960223E-11
   21.8728714        -1.30360150E-11
   21.9996643        -1.17418783E-11
   22.1264572        -9.28493133E-12
   22.2532501        -5.59563073E-12
   22.3800430        -6.79153673E-13
   22.5068340         5.37199148E-12
   22.6336269         1.23695412E-11
   22.7604198         2.00263382E-11
   22.8872128         2.79592668E-11
   23.0140057         3.56987669E-11
   23.1407986         4.27050444E-11
   23.2675915         4.83908018E-11
   23.3943844         5.21498886E-11
   23.5211754         5.33909549E-11
   23.6479683         5.15749145E-11
   23.7747612         4.62545731E-11
   23.9015541         3.71147071E-11
   24.0283470         2.40103527E-11
   24.1551399         7.00122382E-12
   24.2819328        -1.36202915E-11
   24.4087238        -3.73098392E-11
   24.5355167        -6.32628672E-11
   24.6623096        -9.04192762E-11
   24.7891026        -1.17482829E-10
   24.9158955        -1.42955731E-10
   25.0426884        -1.65189029E-10
   25.1694813        -1.82447807E-10
   25.2962742        -1.92989888E-10
   25.4230652        -1.95155045E-10
   25.5498581        -1.87461907E-10
   25.6766510        -1.68708117E-10
   25.8034439        -1.38069445E-10
   25.9302368        -9.51926662E-11
   26.0570297        -4.02773405E-11
   26.1838226         2.58585913E-11
   26.3106136         1.01734100E-10
   26.4374065         1.85185409E-10
   26.5641994         2.73375433E-10
   26.6909924         3.62834485E-10
   26.8177853         4.49535104E-10
   26.9445782         5.29001121E-10
   27.0713711         5.96450889E-10
   27.1981640         6.46973142E-10
   27.3249550         6.75731415E-10
   27.4517479         6.78191836E-10
   27.5785408         6.50367760E-10
   27.7053337         5.89071958E-10
   27.8321266         4.92165753E-10
   27.9589195         3.58793356E-10
   28.0857124         1.89589205E-10
   28.2125034        -1.31565678E-11
   28.3392963        -2.45385573E-10
   28.4660892        -5.01225006E-10
   28.5928822        -7.73016651E-10
   28.7196751        -1.05143061E-09
   28.8464680        -1.32566613E-09
   28.9732609        -1.58374125E-09
   29.1000538        -1.81286930E-09
   29.2268448        -1.99991113E-09
   29.3536377        -2.13189177E-09
   29.4804306        -2.19656737E-09
   29.6072235        -2.18301799E-09
   29.7340164        -2.08224415E-09
   29.8608093        -1.88774019E-09
   29.9876022        -1.59601743E-09
   30.1143932        -1.20704813E-09
   30.2411861        -7.24605653E-10
   30.3679790        -1.56475569E-10
   30.4947720         4.85480267E-10
   30.6215649         1.18542287E-09
   30.7483578         1.92380312E-09
   30.8751507         2.67779754E-09
   31.0019417         3.42190809E-09
   31.1287346         4.12870271E-09
   31.2555275         4.76968598E-09
   31.3823204         5.31625766E-09
   31.5091133         5.74073145E-09
   31.6359062         6.01737904E-09
   31.7626991         6.12344531E-09
   31.8894920         6.04012174E-09
   32.0162849         5.75340220E-09
   32.1430779         5.25482635E-09
   32.2698708         4.54205251E-09
   32.3966637         3.61925379E-09
   32.5234528         2.49731813E-09
   32.6502457         1.19384247E-09
   32.7770386        -2.67073585E-10
   32.9038315        -1.85522830E-09
   33.0306244        -3.53490170E-09
   33.1574173        -5.26560040E-09
   33.2842102        -7.00294445E-09
   33.4110031        -8.69966232E-09
   33.5377960        -1.03066906E-08
   33.6645889        -1.17743237E-08
   33.7913818        -1.30534081E-08
   33.9181747        -1.40965639E-08
   34.0449677        -1.48593937E-08
   34.1717606        -1.53016746E-08
   34.2985535        -1.53885136E-08
   34.4253426        -1.50914410E-08
   34.5521355        -1.43894345E-08
   34.6789284        -1.32698430E-08
   34.8057213        -1.17291998E-08
   34.9325142        -9.77389014E-09
   35.0593071        -7.42064943E-09
   35.1861000        -4.69686956E-09
   35.3128929        -1.64068470E-09
   35.4396858         1.69920733E-09
   35.5664787         5.26399369E-09
   35.6932716         8.98547992E-09
   35.8200645         1.27871598E-08
   35.9468575         1.65855703E-08
   36.0736504         2.02919672E-08
   36.2004433         2.38142785E-08
   36.3272324         2.70593148E-08
   36.4540253         2.99351797E-08
   36.5808182         3.23538067E-08
   36.7076111         3.42336115E-08
   36.8344040         3.55020902E-08
   36.9611969         3.60983705E-08
   37.0879898         3.59755283E-08
   37.2147827         3.51026834E-08
   37.3415756         3.34666979E-08
   37.4683685         3.10734372E-08
   37.5951614         2.79485466E-08
   37.7219543         2.41376164E-08
   37.8487473         1.97057748E-08
   37.9755402         1.47366235E-08
   38.1023293         9.33055677E-09
   38.2291222         3.60245567E-09
   38.3559151        -2.32118436E-09
   38.4827080        -8.30563174E-09
   38.6095009        -1.42117482E-08
   38.7362938        -1.99001082E-08
   38.8630867        -2.52353498E-08
   38.9898796        -3.00906144E-08
   39.1166725        -3.43519027E-08
   39.2434654        -3.79222733E-08
   39.3702583        -4.07256664E-08
   39.4970512        -4.27102762E-08
   39.6238441        -4.38513119E-08
   39.7506371        -4.41530190E-08
   39.8774300        -4.36499050E-08
   40.0042191        -4.24070095E-08
   40.1310120        -4.05192395E-08
   40.2578049        -3.81096328E-08
   40.3845978        -3.53266181E-08
   40.5113907        -3.23402496E-08
   40.6381836        -2.93373823E-08
   40.7649765        -2.65160054E-08
   40.8917694        -2.40786679E-08
   41.0185623        -2.22251906E-08
   41.1453552        -2.11448121E-08
   41.2721481        -2.10079296E-08
   41.3989410        -2.19576073E-08
   41.5257339        -2.41010305E-08
   41.6525269        -2.75012191E-08
   41.7793198        -3.21691616E-08
   41.9061089        -3.80566298E-08
   42.0329018        -4.50499158E-08
   42.1596947        -5.29647970E-08
   42.2864876        -6.15428632E-08
   42.4132805        -7.04495520E-08
   42.5400734        -7.92740025E-08
   42.6668663        -8.75309070E-08
   42.7936592        -9.46645855E-08
   42.9204521        -1.00055317E-07
   43.0472450        -1.03027908E-07
   43.1740379        -1.02862543E-07
   43.3008308        -9.88078526E-08
   43.4276237        -9.00959805E-08
   43.5544167        -7.59594059E-08
   43.6812096        -5.56492097E-08
   43.8079987        -2.84544619E-08
   43.9347916         6.27774055E-09
   44.0615845         4.91222210E-08
   44.1883774         1.00555923E-07
   44.3151703         1.60939194E-07
   44.4419632         2.30498600E-07
   44.5687561         3.09311730E-07
   44.6955490         3.97294883E-07
   44.8223419         4.94193444E-07
   44.9491348         5.99576310E-07
   45.0759277         7.12833184E-07
   45.2027206         8.33176614E-07
   45.3295135         9.59647650E-07
   45.4563065         1.09112568E-06
   45.5830994         1.22634106E-06
   45.7098885         1.36389224E-06
   45.8366814         1.50226549E-06
   45.9634743         1.63985635E-06
   46.0902672         1.77499419E-06
   46.2170601         1.90596631E-06
   46.3438530         2.03104446E-06
   46.4706459         2.14850979E-06
   46.5974388         2.25667759E-06
   46.7242317         2.35392167E-06
   46.8510246         2.43869636E-06
   46.9778175         2.50955577E-06
   47.1046104         2.56517478E-06
   47.2314034         2.60436173E-06
   47.3581963         2.62607568E-06
   47.4849892         2.62943718E-06
   47.6117783         2.61373862E-06
   47.7385712         2.57845386E-06
   47.8653641         2.52324503E-06
   47.9921570         2.44796911E-06
   48.1189499         2.35268362E-06
   48.2457428         2.23765051E-06
   48.3725357         2.10333860E-06
   48.4993286         1.95042708E-06
   48.6261215         1.77980439E-06
   48.7529144         1.59256717E-06
   48.8797073         1.39001600E-06
   49.0065002         1.17364755E-06
   49.1332932         9.45143768E-07
   49.2600861         7.06357014E-07
   49.3868790         4.59288486E-07
   49.5136681         2.06063859E-07
   49.6404610        -5.10990112E-08
   49.7672539        -3.09926520E-07
   49.8940468        -5.68133032E-07
   50.0208397        -8.23469918E-07
   50.1476326        -1.07377718E-06
   50.2744255        -1.31704178E-06
   50.4012184        -1.55145676E-06
   50.5280113        -1.77548281E-06
   50.6548042        -1.98790781E-06
   50.7815971        -2.18790410E-06
   50.9083900        -2.37508175E-06
   51.0351830        -2.54953648E-06
   51.1619759        -2.71188492E-06
   51.2887688        -2.86329032E-06
   51.4155579        -3.00547777E-06
   51.5423508        -3.14073191E-06
   51.6691437        -3.27187695E-06
   51.7959366        -3.40224506E-06
   51.9227295        -3.53562132E-06
   52.0495224        -3.67617235E-06
   52.1763153        -3.82836060E-06
   52.3031082        -3.99683677E-06
   52.4299011        -4.18632089E-06
   52.5566940        -4.40147141E-06
   52.6834869        -4.64674349E-06
   52.8102798        -4.92624031E-06
   52.9370728        -5.24356255E-06
   53.0638657        -5.60166109E-06
   53.1906586        -6.00269277E-06
   53.3174477        -6.44788861E-06
   53.4442406        -6.93743732E-06
   53.5710335        -7.47038484E-06
   53.6978264        -8.04456431E-06
   53.8246193        -8.65654602E-06
   53.9514122        -9.30161968E-06
   54.0782051        -9.97381539E-06
   54.2049980        -1.06659490E-05
   54.3317909        -1.13697160E-05
   54.4585838        -1.20758032E-05
   54.5853767        -1.27740495E-05
   54.7121696        -1.34536331E-05
   54.8389626        -1.41032815E-05
   54.9657555        -1.47115161E-05
   55.0925484        -1.52669109E-05
   55.2193375        -1.57583563E-05
   55.3461304        -1.61753524E-05
   55.4729233        -1.65082729E-05
   55.5997162        -1.67486487E-05
   55.7265091        -1.68894239E-05
   55.8533020        -1.69251980E-05
   55.9800949        -1.68524311E-05
   56.1068878        -1.66696282E-05
   56.2336807        -1.63774785E-05
   56.3604736        -1.59789397E-05
   56.4872665        -1.54793070E-05
   56.6140594        -1.48862009E-05
   56.7408524        -1.42095168E-05
   56.8676453        -1.34613329E-05
   56.9944382        -1.26557488E-05
   57.1212273        -1.18086937E-05
   57.2480202        -1.09376806E-05
   57.3748131        -1.00615271E-05
   57.5016060        -9.20003367E-06
   57.6283989        -8.37363586E-06
   57.7551918        -7.60303965E-06
   57.8819847        -6.90882734E-06
   58.0087776        -6.31106877E-06
   58.1355705        -5.82892244E-06
   58.2623634        -5.48024445E-06
   58.3891563        -5.28121245E-06
   58.5159492        -5.24597272E-06
   58.6427422        -5.38630457E-06
   58.7695351        -5.71132841E-06
   58.8963280        -6.22725156E-06
   59.0231171        -6.93715310E-06
   59.1499100        -7.84082749E-06
   59.2767029        -8.93467404E-06
   59.4034958        -1.02116483E-05
   59.5302887        -1.16612719E-05
   59.6570816        -1.32697051E-05
   59.7838745        -1.50198784E-05
   59.9106674        -1.68916940E-05
   60.0374603        -1.88622780E-05
   60.1642532        -2.09062946E-05
   60.2910461        -2.29963280E-05
   60.4178391        -2.51032870E-05
   60.5446320        -2.71968911E-05
   60.6714249        -2.92461627E-05
   60.7982178        -3.12199663E-05
   60.9250069        -3.30875519E-05
   61.0517998        -3.48191388E-05
   61.1785927        -3.63864601E-05
   61.3053856        -3.77633332E-05
   61.4321785        -3.89261659E-05
   61.5589714        -3.98544616E-05
   61.6857643        -4.05312494E-05
   61.8125572        -4.09434761E-05
   61.9393501        -4.10823159E-05
   62.0661430        -4.09433960E-05
   62.1929359        -4.05269420E-05
   62.3197289        -3.98378397E-05
   62.4465218        -3.88855806E-05
   62.5733147        -3.76841381E-05
   62.7001076        -3.62517094E-05
   62.8268967        -3.46104171E-05
   62.9536896        -3.27858761E-05
   63.0804825        -3.08067356E-05
   63.2072754        -2.87041003E-05
   63.3340683        -2.65109666E-05
   63.4608612        -2.42615788E-05
   63.5876541        -2.19907779E-05
   63.7144470        -1.97333666E-05
   63.8412399        -1.75234727E-05
   63.9680328        -1.53939400E-05
   64.0948257        -1.33758012E-05
   64.2216187        -1.14977611E-05
   64.3484116        -9.78579465E-06
   64.4752045        -8.26279756E-06
   64.6019974        -6.94834307E-06
   64.7287903        -5.85851103E-06
   64.8555832        -5.00581609E-06
   64.9823761        -4.39921769E-06
   65.1091690        -4.04420507E-06
   65.2359619        -3.94295421E-06
   65.3627548        -4.09454333E-06
   65.4895477        -4.49520849E-06
   65.6163330        -5.13863279E-06
   65.7431259        -6.01624652E-06
   65.8699188        -7.11753592E-06
   65.9967117        -8.43033013E-06
   66.1235046        -9.94107450E-06
   66.2502975        -1.16350575E-05
   66.3770905        -1.34966122E-05
   66.5038834        -1.55092548E-05
   66.6306763        -1.76557896E-05
   66.7574692        -1.99183578E-05
   66.8842621        -2.22784529E-05
   67.0110550        -2.47168919E-05
   67.1378479        -2.72137731E-05
   67.2646408        -2.97484039E-05
   67.3914337        -3.22992528E-05
   67.5182266        -3.48438844E-05
   67.6450195        -3.73589501E-05
   67.7718124        -3.98201810E-05
   67.8986053        -4.22024750E-05
   68.0253983        -4.44800062E-05
   68.1521912        -4.66264028E-05
   68.2789841        -4.86150238E-05
   68.4057770        -5.04192685E-05
   68.5325699        -5.20129543E-05
   68.6593628        -5.33707716E-05
   68.7861557        -5.44687646E-05
   68.9129486        -5.52848687E-05
   69.0397415        -5.57994463E-05
   69.1665344        -5.59958062E-05
   69.2933273        -5.58607389E-05
   69.4201126        -5.53850041E-05
   69.5469055        -5.45637267E-05
   69.6736984        -5.33967650E-05
   69.8004913        -5.18889319E-05
   69.9272842        -5.00501592E-05
   70.0540771        -4.78955262E-05
   70.1808701        -4.54451256E-05
   70.3076630        -4.27238883E-05
   70.4344559        -3.97611839E-05
   70.5612488        -3.65903943E-05
   70.6880417        -3.32483251E-05
   70.8148346        -2.97745355E-05
   70.9416275        -2.62106059E-05
   71.0684204        -2.25993517E-05
   71.1952133        -1.89839939E-05
   71.3220062        -1.54073277E-05
   71.4487991        -1.19109227E-05
   71.5755920        -8.53434540E-06
   71.7023849        -5.31446949E-06
   71.8291779        -2.28485396E-06
   71.9559708         5.24770996E-07
   72.0827637         3.08889230E-06
   72.2095566         5.38648464E-06
   72.3363495         7.40114456E-06
   72.4631424         9.12109408E-06
   72.5899353         1.05390500E-05
   72.7167282         1.16519759E-05
   72.8435211         1.24607222E-05
   72.9703140         1.29695754E-05
   73.0971069         1.31857323E-05
   73.2238922         1.31187207E-05
   73.3506851         1.27797921E-05
   73.4774780         1.21813091E-05
   73.6042709         1.13361484E-05
   73.7310638         1.02571439E-05
   73.8578568         8.95659286E-06
   73.9846497         7.44583667E-06
   74.1114426         5.73493253E-06
   74.2382355         3.83242923E-06
   74.3650284         1.74525155E-06
   74.4918213        -5.21302582E-07
   74.6186142        -2.96346116E-06
   74.7454071        -5.57877274E-06
   74.8722000        -8.36581057E-06
   74.9989929        -1.13237938E-05
   75.1257858        -1.44521555E-05
   75.2525787        -1.77500642E-05
   75.3793716        -2.12159212E-05
   75.5061646        -2.48468641E-05
   75.6329575        -2.86382856E-05
   75.7597504        -3.25833862E-05
   75.8865433        -3.66727945E-05
   76.0133362        -4.08942724E-05
   76.1401291        -4.52324603E-05
   76.2669220        -4.96687753E-05
   76.3937149        -5.41813752E-05
   76.5205078        -5.87452596E-05
   76.6473007        -6.33324016E-05
   76.7740936        -6.79121003E-05
   76.9008865        -7.24512720E-05
   77.0276718        -7.69149774E-05
   77.1544647        -8.12668804E-05
   77.2812576        -8.54698592E-05
   77.4080505        -8.94865734E-05
   77.5348434        -9.32800758E-05
   77.6616364        -9.68144523E-05
   77.7884293        -1.00055375E-04
   77.9152222        -1.02970676E-04
   78.0420151        -1.05530802E-04
   78.1688080        -1.07709318E-04
   78.2956009        -1.09483168E-04
   78.4223938        -1.10833003E-04
   78.5491867        -1.11743364E-04
   78.6759796        -1.12202710E-04
   78.8027725        -1.12203474E-04
   78.9295654        -1.11741945E-04
   79.0563583        -1.10818110E-04
   79.1831512        -1.09435357E-04
   79.3099442        -1.07600237E-04
   79.4367371        -1.05322062E-04
   79.5635300        -1.02612496E-04
   79.6903229        -9.94851944E-05
   79.8171158        -9.59552926E-05
   79.9439087        -9.20390667E-05
   80.0707016        -8.77534840E-05
   80.1974945        -8.31158759E-05
   80.3242874        -7.81435665E-05
   80.4510803        -7.28536324E-05
   80.5778732        -6.72627211E-05
   80.7046585        -6.13868688E-05
   80.8314514        -5.52414531E-05
   80.9582443        -4.88411933E-05
   81.0850372        -4.22002304E-05
   81.2118301        -3.53322393E-05
   81.3386230        -2.82506353E-05
   81.4654160        -2.09687987E-05
   81.5922089        -1.35003529E-05
   81.7190018        -5.85944781E-06
   81.8457947         1.93893402E-06
   81.9725876         9.87865860E-06
   82.0993805         1.79421895E-05
   82.2261734         2.61103178E-05
   82.3529663         3.43619831E-05
   82.4797592         4.26740844E-05
   82.6065521         5.10214413E-05
   82.7333450         5.93767618E-05
   82.8601379         6.77107164E-05
   82.9869308         7.59920804E-05
   83.1137238         8.41879737E-05
   83.2405167         9.22641630E-05
   83.3673096         1.00185433E-04
   83.4941025         1.07916007E-04
   83.6208954         1.15420095E-04
   83.7476883         1.22662343E-04
   83.8744812         1.29608408E-04
   84.0012741         1.36225543E-04
   84.1280670         1.42483143E-04
   84.2548599         1.48353225E-04
   84.3816528         1.53810965E-04
   84.5084381         1.58835071E-04
   84.6352310         1.63408273E-04
   84.7620239         1.67517428E-04
   84.8888168         1.71153864E-04
   85.0156097         1.74313434E-04
   85.1424026         1.76996517E-04
   85.2691956         1.79207927E-04
   85.3959885         1.80956791E-04
   85.5227814         1.82256161E-04
   85.6495743         1.83122829E-04
   85.7763672         1.83576762E-04
   85.9031601         1.83640761E-04
   86.0299530         1.83339871E-04
   86.1567459         1.82700926E-04
   86.2835388         1.81751922E-04
   86.4103317         1.80521602E-04
   86.5371246         1.79038951E-04
   86.6639175         1.77332637E-04
   86.7907104         1.75430745E-04
   86.9175034         1.73360357E-04
   87.0442963         1.71147374E-04
   87.1710892         1.68816317E-04
   87.2978821         1.66390164E-04
   87.4246750         1.63890407E-04
   87.5514679         1.61337113E-04
   87.6782608         1.58748997E-04
   87.8050537         1.56143622E-04
   87.9318466         1.53537621E-04
   88.0586395         1.50946900E-04
   88.1854324         1.48386913E-04
   88.3122177         1.45872866E-04
   88.4390106         1.43419937E-04
   88.5658035         1.41043449E-04
   88.6925964         1.38758915E-04
   88.8193893         1.36582195E-04
   88.9461823         1.34529386E-04
   89.0729752         1.32616755E-04
   89.1997681         1.30860513E-04
   89.3265610         1.29276610E-04
   89.4533539         1.27880427E-04
   89.5801468         1.26686326E-04
   89.7069397         1.25707287E-04
   89.8337326         1.24954415E-04
   89.9605255         1.24436541E-04
   90.0873184         1.24159662E-04
   90.2141113         1.24126600E-04
   90.3409042         1.24336613E-04
   90.4676971         1.24785030E-04
   90.5944901         1.25463048E-04
   90.7212830         1.26357612E-04
   90.8480759         1.27451320E-04
   90.9748688         1.28722560E-04
   91.1016617         1.30145665E-04
   91.2284546         1.31691297E-04
   91.3552475         1.33326772E-04
   91.4820404         1.35016657E-04
   91.6088333         1.36723407E-04
   91.7356262         1.38408010E-04
   91.8624191         1.40030796E-04
   91.9892120         1.41552271E-04
   92.1159973         1.42933830E-04
   92.2427902         1.44138685E-04
   92.3695831         1.45132566E-04
   92.4963760         1.45884551E-04
   92.6231689         1.46367631E-04
   92.7499619         1.46559338E-04
   92.8767548         1.46442238E-04
   93.0035477         1.46004226E-04
   93.1303406         1.45238781E-04
   93.2571335         1.44145029E-04
   93.3839264         1.42727746E-04
   93.5107193         1.40997101E-04
   93.6375122         1.38968418E-04
   93.7643051         1.36661765E-04
   93.8910980         1.34101341E-04
   94.0178909         1.31314955E-04
   94.1446838         1.28333253E-04
   94.2714767         1.25189108E-04
   94.3982697         1.21916724E-04
   94.5250626         1.18550917E-04
   94.6518555         1.15126371E-04
   94.7786484         1.11676840E-04
   94.9054413         1.08234482E-04
   95.0322342         1.04829211E-04
   95.1590271         1.01488076E-04
   95.2858200         9.82348429E-05
   95.4126129         9.50894973E-05
   95.5394058         9.20679449E-05
   95.6661987         8.91817981E-05
   95.7929916         8.64381727E-05
   95.9197769         8.38396882E-05
   96.0465698         8.13844599E-05
   96.1733627         7.90661725E-05
   96.3001556         7.68742830E-05
   96.4269485         7.47942759E-05
   96.5537415         7.28078885E-05
   96.6805344         7.08934895E-05
   96.8073273         6.90265078E-05
   96.9341202         6.71797825E-05
   97.0609131         6.53241004E-05
   97.1877060         6.34286480E-05
   97.3144989         6.14615419E-05
   97.4412918         5.93903860E-05
   97.5680847         5.71828023E-05
   97.6948776         5.48070420E-05
   97.8216705         5.22325463E-05
   97.9484634         4.94305641E-05
   98.0752563         4.63747347E-05