  -4.50000000         0.00000000    
  -4.37320757         0.00000000    
  -4.24641466         0.00000000    
  -4.11962223         0.00000000    
  -3.99282932         0.00000000    
  -3.86603665         0.00000000    
  -3.73924398         0.00000000    
  -3.61245155         6.46024377E-31
  -3.48565888         3.72166966E-30
  -3.35886621         3.32131674E-29
  -3.23207355         1.45572233E-28
  -3.10528088         6.39636868E-28
  -2.97848821         3.29213650E-27
  -2.85169554         1.66033157E-26
  -2.72490287         7.06515968E-26
  -2.59811020         2.46664627E-25
  -2.47131753         7.13504671E-25
  -2.34452486         1.72878512E-24
  -2.21773219         3.51332930E-24
  -2.09093952         5.88990531E-24
  -1.96414697         7.68071738E-24
  -1.83735430         6.16865641E-24
  -1.71056163        -2.59832461E-24
  -1.58376896        -2.15665784E-23
  -1.45697629        -4.78913827E-23
  -1.33018374        -6.69378392E-23
  -1.20339108        -4.97528798E-23
  -1.07659841         3.81550153E-23
 -0.949805737         2.09441750E-22
 -0.823013067         4.10080494E-22
 -0.696220458         4.76001245E-22
 -0.569427788         1.32154460E-22
 -0.442635119        -9.13594834E-22
 -0.315842479        -2.74916082E-21
 -0.189049825        -4.94378024E-21
  -6.22571707E-02    -6.28207325E-21
   6.45354837E-02    -4.79340179E-21
  0.191328138         1.65166491E-21
  0.318120778         1.40464477E-20
  0.444913447         3.04699120E-20
  0.571706116         4.45299403E-20
  0.698498726         4.51698614E-20
  0.825291395         1.90671949E-20
  0.952084064        -4.36946042E-20
   1.07887673        -1.41293318E-19
   1.20566940        -2.51597065E-19
   1.33246195        -3.27492721E-19
   1.45925462        -3.00976878E-19
   1.58604729        -9.97415223E-20
   1.71283996         3.23424337E-19
   1.83963263         9.53397621E-19
   1.96642530         1.67845234E-18
   2.09321785         2.27398278E-18
   2.22001052         2.41958001E-18
   2.34680319         1.75970516E-18
   2.47359586         7.63507012E-21
   2.60038853        -2.92171049E-18
   2.72718120        -6.77827818E-18
   2.85397387        -1.08801159E-17
   2.98076653        -1.40916702E-17
   3.10755920        -1.49070073E-17
   3.23435187        -1.16518497E-17
   3.36114454        -2.79929272E-18
   3.48793697         1.26231095E-17
   3.61472964         3.45699821E-17
   3.74152231         6.15040218E-17
   3.86831498         8.99715286E-17
   3.99510765         1.14314997E-16
   4.12190056         1.26653515E-16
   4.24869299         1.17311271E-16
   4.37548542         7.59061363E-17
   4.50227833        -6.71680377E-18
   4.62907076        -1.35650818E-16
   4.75586367        -3.08393208E-16
   4.88265610        -5.11183907E-16
   5.00944901        -7.16204315E-16
   5.13624144        -8.80951164E-16
   5.26303434        -9.51170460E-16
   5.38982677        -8.68392259E-16
   5.51661968        -5.82263524E-16
   5.64341211        -6.65805815E-17
   5.77020502         6.63596633E-16
   5.89699745         1.53774258E-15
   6.02379036         2.42333373E-15
   6.15058279         3.13146514E-15
   6.27737522         3.43755256E-15
   6.40416813         3.11728263E-15
   6.53096056         1.99443775E-15
   6.65775347        -6.40311496E-18
   6.78454590        -2.81205515E-15
   6.91133881        -6.16871861E-15
   7.03813124        -9.63567147E-15
   7.16492414        -1.26113965E-14
   7.29171658        -1.43940391E-14
   7.41850948        -1.42724798E-14
   7.54530191        -1.16390010E-14
   7.67209482        -6.11030933E-15
   7.79888725         2.35861004E-15
   7.92567968         1.33840616E-14
   8.05247211         2.61019674E-14
   8.17926502         3.91684027E-14
   8.30605793         5.08230610E-14
   8.43285084         5.90228685E-14
   8.55964279         6.16477423E-14
   8.68643570         5.67733794E-14
   8.81322861         4.29956601E-14
   8.94002151         1.97788919E-14
   9.06681347        -1.22136967E-14
   9.19360638        -5.08613097E-14
   9.32039928        -9.24604225E-14
   9.44719219        -1.31794586E-13
   9.57398415        -1.62449725E-13
   9.70077705        -1.77403353E-13
   9.82756996        -1.69883530E-13
   9.95436192        -1.34454256E-13
   10.0811548        -6.82427815E-14
   10.2079477         2.78144647E-14
   10.3347406         1.47860280E-13
   10.4615326         2.80311771E-13
   10.5883255         4.07538559E-13
   10.7151184         5.06189600E-13
   10.8419113         5.48306572E-13
   10.9687033         5.03315000E-13
   11.0954962         3.40921952E-13
   11.2222891         3.48629410E-14
   11.3490820        -4.32655810E-13
   11.4758739        -1.06609003E-12
   11.6026669        -1.85164731E-12
   11.7294598        -2.75282726E-12
   11.8562517        -3.70698567E-12
   11.9830446        -4.62354504E-12
   12.1098375        -5.38446761E-12
   12.2366304        -5.84753903E-12
   12.3634224        -5.85288545E-12
   12.4902153        -5.23294559E-12
   12.6170082        -3.82588969E-12
   12.7438011        -1.49215449E-12
   12.8705931         1.86654858E-12
   12.9973860         6.28675324E-12
   13.1241789         1.17226506E-11
   13.2509708         1.80270798E-11
   13.3777637         2.49360931E-11
   13.5045567         3.20592129E-11
   13.6313496         3.88776580E-11
   13.7581415         4.47525107E-11
   13.8849344         4.89446643E-11
   14.0117273         5.06475382E-11
   14.1385202         4.90329340E-11
   14.2653122         4.33092659E-11
   14.3921051         3.27902011E-11
   14.5188980         1.69706037E-11
   14.6456909        -4.39458929E-12
   14.7724829        -3.12140001E-11
   14.8992758        -6.29920768E-11
   15.0260687        -9.87766674E-11
   15.1528606        -1.37128614E-10
   15.2796535        -1.76119480E-10
   15.4064465        -2.13362800E-10
   15.5332394        -2.46082404E-10
   15.6600313        -2.71219769E-10
   15.7868242        -2.85579671E-10
   15.9136171        -2.86010465E-10
   16.0404091        -2.69613248E-10
   16.1672020        -2.33969788E-10
   16.2939949        -1.77378168E-10
   16.4207878        -9.90811461E-11
   16.5475807         5.27718548E-13
   16.6743736         1.19736901E-10
   16.8011646         2.55404586E-10
   16.9279575         4.02915840E-10
   17.0547504         5.56220736E-10
   17.1815434         7.07962522E-10
   17.3083363         8.49699588E-10
   17.4351292         9.72219971E-10
   17.5619221         1.06594156E-09
   17.6887150         1.12138643E-09
   17.8155060         1.12970922E-09
   17.9422989         1.08325915E-09
   18.0690918         9.76145165E-10
   18.1958847         8.04775302E-10
   18.3226776         5.68337710E-10
   18.4494705         2.69189643E-10
   18.5762634        -8.68744868E-11
   18.7030544        -4.90503582E-10
   18.8298473        -9.28839283E-10
   18.9566402        -1.38574952E-09
   19.0834332        -1.84224980E-09
   19.2102261        -2.27711050E-09
   19.3370190        -2.66763611E-09
   19.4638119        -2.99059222E-09
   19.5906048        -3.22325056E-09
   19.7173958        -3.34451089E-09
   19.8441887        -3.33605210E-09
   19.9709816        -3.18346038E-09
   20.0977745        -2.87728286E-09
   20.2245674        -2.41394615E-09
   20.3513603        -1.79649107E-09
   20.4781532        -1.03507269E-09
   20.6049442        -1.47183266E-10
   20.7317371         8.42432679E-10
   20.8585300         1.90219174E-09
   20.9853230         2.99442471E-09
   21.1121159         4.07645961E-09
   21.2389088         5.10201570E-09
   21.3657017         6.02287331E-09
   21.4924946         6.79077017E-09
   21.6192856         7.35945926E-09
   21.7460785         7.68686004E-09
   21.8728714         7.73721354E-09
   21.9996643         7.48315898E-09
   22.1264572         6.90763047E-09
   22.2532501         6.00547612E-09
   22.3800430         4.78473394E-09
   22.5068340         3.26744054E-09
   22.6336269         1.48994550E-09
   22.7604198        -4.97364760E-10
   22.8872128        -2.63094324E-09
   23.0140057        -4.83559459E-09
   23.1407986        -7.02660286E-09
   23.2675915        -9.11245301E-09
   23.3943844        -1.09980709E-08
   23.5211754        -1.25885142E-08
   23.6479683        -1.37929836E-08
   23.7747612        -1.45290251E-08
   23.9015541        -1.47267691E-08
   24.0283470        -1.43330121E-08
   24.1551399        -1.33149829E-08
   24.2819328        -1.16635697E-08
   24.4087238        -9.39585387E-09
   24.5355167        -6.55675336E-09
   24.6623096        -3.21962834E-09
   24.7891026         5.14280230E-10
   24.9158955         4.51764448E-09
   25.0426884         8.64014549E-09
   25.1694813         1.27128388E-08
   25.2962742         1.65537415E-08
   25.4230652         1.99745056E-08
   25.5498581         2.27879688E-08
   25.6766510         2.48163978E-08
   25.8034439         2.59000608E-08
   25.9302368         2.59058481E-08
   26.0570297         2.47355292E-08
   26.1838226         2.23332801E-08
   26.3106136         1.86920701E-08
   26.4374065         1.38585188E-08
   26.5641994         7.93589550E-09
   26.6909924         1.08492126E-09
   26.8177853        -6.47781517E-09
   26.9445782        -1.44840238E-08
   27.0713711        -2.26204637E-08
   27.1981640        -3.05382564E-08
   27.3249550        -3.78645559E-08
   27.4517479        -4.42163284E-08
   27.5785408        -4.92157355E-08
   27.7053337        -5.25067350E-08
   27.8321266        -5.37721938E-08
   27.9589195        -5.27508632E-08
   28.0857124        -4.92535186E-08
   28.2125034        -4.31774616E-08
   28.3392963        -3.45186777E-08
   28.4660892        -2.33809381E-08
   28.5928822        -9.98121230E-09
   28.7196751         5.34911049E-09
   28.8464680         2.21675602E-08
   28.9732609         3.99287572E-08
   29.1000538         5.79973864E-08
   29.2268448         7.56658167E-08
   29.3536377         9.21761227E-08
   29.4804306         1.06745716E-07
   29.6072235         1.18596148E-07
   29.7340164         1.26983892E-07
   29.8608093         1.31232227E-07
   29.9876022         1.30762942E-07
   30.1143932         1.25126732E-07
   30.2411861         1.14030875E-07
   30.3679790         9.73631344E-08
   30.4947720         7.52105151E-08
   30.6215649         4.78720601E-08
   30.7483578         1.58646341E-08
   30.8751507        -2.00787706E-08
   31.0019417        -5.90187668E-08
   31.1287346        -9.98273393E-08
   31.2555275        -1.41213576E-07
   31.3823204        -1.81756874E-07
   31.5091133        -2.19946727E-07
   31.6359062        -2.54228297E-07
   31.7626991        -2.83052259E-07
   31.8894920        -3.04927596E-07
   32.0162849        -3.18475600E-07
   32.1430779        -3.22483203E-07
   32.2698708        -3.15954111E-07
   32.3966637        -2.98155555E-07
   32.5234528        -2.68659306E-07
   32.6502457        -2.27375125E-07
   32.7770386        -1.74575348E-07
   32.9038315        -1.10909269E-07
   33.0306244        -3.74069096E-08
   33.1574173         4.45289920E-08
   33.2842102         1.33142507E-07
   33.4110031         2.26355667E-07
   33.5377960         3.21810461E-07
   33.6645889         4.16921210E-07
   33.7913818         5.08935670E-07
   33.9181747         5.95003655E-07
   34.0449677         6.72251531E-07
   34.1717606         7.37860489E-07
   34.2985535         7.89146156E-07
   34.4253426         8.23638516E-07
   34.5521355         8.39158190E-07
   34.6789284         8.33888635E-07
   34.8057213         8.06440653E-07
   34.9325142         7.55908729E-07
   35.0593071         6.81915878E-07
   35.1861000         5.84647182E-07
   35.3128929         4.64869657E-07
   35.4396858         3.23938252E-07
   35.5664787         1.63787206E-07
   35.6932716        -1.30927615E-08
   35.8200645        -2.03692039E-07
   35.9468575        -4.04532869E-07
   36.0736504        -6.11732503E-07
   36.2004433        -8.21077663E-07
   36.3272324        -1.02810793E-06
   36.4540253        -1.22820632E-06
   36.5808182        -1.41669557E-06
   36.7076111        -1.58893602E-06
   36.8344040        -1.74042543E-06
   36.9611969        -1.86689465E-06
   37.0879898        -1.96440101E-06
   37.2147827        -2.02941374E-06
   37.3415756        -2.05889114E-06
   37.4683685        -2.05034803E-06
   37.5951614        -2.00191130E-06
   37.7219543        -1.91236359E-06
   37.8487473        -1.78117239E-06
   37.9755402        -1.60850857E-06
   38.1023293        -1.39525025E-06
   38.2291222        -1.14297620E-06
   38.3559151        -8.53946744E-07
   38.4827080        -5.31078115E-07
   38.6095009        -1.77907154E-07
   38.7362938         2.01448074E-07
   38.8630867         6.02330886E-07
   38.9898796         1.01959063E-06
   39.1166725         1.44762600E-06
   39.2434654         1.88042611E-06
   39.3702583         2.31160698E-06
   39.4970512         2.73444539E-06
   39.6238441         3.14190311E-06
   39.7506371         3.52664961E-06
   39.8774300         3.88107765E-06
   40.0042191         4.19731577E-06
   40.1310120         4.46723652E-06
   40.2578049         4.68246662E-06
   40.3845978         4.83439999E-06
   40.5113907         4.91420860E-06
   40.6381836         4.91287165E-06
   40.7649765         4.82120322E-06
   40.8917694         4.62990238E-06
   41.0185623         4.32961178E-06
   41.1453552         3.91099593E-06
   41.2721481         3.36483663E-06
   41.3989410         2.68214671E-06
   41.5257339         1.85430292E-06
   41.6525269         8.73195688E-07
   41.7793198        -2.68605646E-07
   41.9061089        -1.57767681E-06
   42.0329018        -3.05955177E-06
   42.1596947        -4.71853218E-06
   42.2864876        -6.55749682E-06
   42.4132805        -8.57771647E-06
   42.5400734        -1.07786782E-05
   42.6668663        -1.31579282E-05
   42.7936592        -1.57109334E-05
   42.9204521        -1.84309720E-05
   43.0472450        -2.13090461E-05
   43.1740379        -2.43338491E-05
   43.3008308        -2.74917420E-05
   43.4276237        -3.07667906E-05
   43.5544167        -3.41408486E-05
   43.6812096        -3.75936579E-05
   43.8079987        -4.11029905E-05
   43.9347916        -4.46448830E-05
   44.0615845        -4.81938114E-05
   44.1883774        -5.17230073E-05
   44.3151703        -5.52047059E-05
   44.4419632        -5.86104798E-05
   44.5687561        -6.19115817E-05
   44.6955490        -6.50792863E-05
   44.8223419        -6.80852318E-05
   44.9491348        -7.09018132E-05
   45.0759277        -7.35025242E-05
   45.2027206        -7.58622919E-05
   45.3295135        -7.79578550E-05
   45.4563065        -7.97680113E-05
   45.5830994        -8.12739672E-05
   45.7098885        -8.24595554E-05
   45.8366814        -8.33114827E-05
   45.9634743        -8.38194974E-05
   46.0902672        -8.39765489E-05
   46.2170601        -8.37788975E-05
   46.3438530        -8.32261503E-05
   46.4706459        -8.23212977E-05
   46.5974388        -8.10706260E-05
   46.7242317        -7.94837106E-05
   46.8510246        -7.75732042E-05
   46.9778175        -7.53547065E-05
   47.1046104        -7.28465602E-05
   47.2314034        -7.00695673E-05
   47.3581963        -6.70467489E-05
   47.4849892        -6.38030688E-05
   47.6117783        -6.03650587E-05
   47.7385712        -5.67605312E-05
   47.8653641        -5.30182479E-05
   47.9921570        -4.91675892E-05
   48.1189499        -4.52382410E-05
   48.2457428        -4.12598965E-05
   48.3725357        -3.72619761E-05
   48.4993286        -3.32734198E-05
   48.6261215        -2.93224166E-05
   48.7529144        -2.54362458E-05
   48.8797073        -2.16411208E-05
   49.0065002        -1.79620856E-05
   49.1332932        -1.44228752E-05
   49.2600861        -1.10459059E-05
   49.3868790        -7.85218072E-06
   49.5136681        -4.86125737E-06
   49.6404610        -2.09124710E-06
   49.7672539         4.41234732E-07
   49.8940468         2.72107854E-06
   50.0208397         4.73475575E-06
   50.1476326         6.47035631E-06
   50.2744255         7.91768161E-06
   50.4012184         9.06835430E-06
   50.5280113         9.91596335E-06
   50.6548042         1.04562023E-05
   50.7815971         1.06870257E-05
   50.9083900         1.06088510E-05
   51.0351830         1.02247386E-05
   51.1619759         9.54058032E-06
   51.2887688         8.56525276E-06
   51.4155579         7.31078580E-06
   51.5423508         5.79245898E-06
   51.6691437         4.02884370E-06
   51.7959366         2.04179787E-06
   51.9227295        -1.43604822E-07
   52.0495224        -2.49922869E-06
   52.1763153        -4.99411590E-06
   52.3031082        -7.59478598E-06
   52.4299011        -1.02656222E-05
   52.5566940        -1.29693681E-05
   52.6834869        -1.56676342E-05
   52.8102798        -1.83215307E-05
   52.9370728        -2.08922793E-05
   53.0638657        -2.33418850E-05
   53.1906586        -2.56338190E-05
   53.3174477        -2.77336876E-05
   53.4442406        -2.96098642E-05
   53.5710335        -3.12340781E-05
   53.6978264        -3.25819201E-05
   53.8246193        -3.36333032E-05
   53.9514122        -3.43728025E-05
   54.0782051        -3.47899331E-05
   54.2049980        -3.48792382E-05
   54.3317909        -3.46403394E-05
   54.4585838        -3.40778279E-05
   54.5853767        -3.32010677E-05
   54.7121696        -3.20238833E-05
   54.8389626        -3.05641843E-05
   54.9657555        -2.88435258E-05
   55.0925484        -2.68865824E-05
   55.2193375        -2.47205753E-05
   55.3461304        -2.23747447E-05
   55.4729233        -1.98797698E-05
   55.5997162        -1.72672117E-05
   55.7265091        -1.45689737E-05
   55.8533020        -1.18168455E-05
   55.9800949        -9.04209355E-06
   56.1068878        -6.27508234E-06
   56.2336807        -3.54495023E-06
   56.3604736        -8.79379229E-07
   56.4872665         1.69558041E-06
   56.6140594         4.15568593E-06
   56.7408524         6.47859861E-06
   56.8676453         8.64397589E-06
   56.9944382         1.06335219E-05
   57.1212273         1.24310500E-05
   57.2480202         1.40225575E-05
   57.3748131         1.53962847E-05
   57.5016060         1.65428373E-05
   57.6283989         1.74552988E-05
   57.7551918         1.81293726E-05
   57.8819847         1.85635636E-05
   58.0087776         1.87593450E-05
   58.1355705         1.87213645E-05
   58.2623634         1.84576038E-05
   58.3891563         1.79795243E-05
   58.5159492         1.73021472E-05
   58.6427422         1.64441299E-05
   58.7695351         1.54277059E-05
   58.8963280         1.42785848E-05
   59.0231171         1.30257413E-05
   59.1499100         1.17010786E-05
   59.2767029         1.03389930E-05
   59.4034958         8.97583777E-06
   59.5302887         7.64926608E-06
   59.6570816         6.39745713E-06
   59.7838745         5.25830956E-06
   59.9106674         4.26854695E-06
   60.0374603         3.46279921E-06
   60.1642532         2.87265470E-06
   60.2910461         2.52579343E-06
   60.4178391         2.44510284E-06
   60.5446320         2.64795949E-06
   60.6714249         3.14555245E-06
   60.7982178         3.94238759E-06
   60.9250069         5.03593628E-06
   61.0517998         6.41648921E-06
   61.1785927         8.06717981E-06
   61.3053856         9.96426388E-06
   61.4321785         1.20775267E-05
   61.5589714         1.43710031E-05
   61.6857643         1.68037350E-05
   61.8125572         1.93308242E-05
   61.9393501         2.19045360E-05
   62.0661430         2.44755465E-05
   62.1929359         2.69942357E-05
   62.3197289         2.94120164E-05
   62.4465218         3.16826918E-05
   62.5733147         3.37637175E-05
   62.7001076         3.56173841E-05
   62.8268967         3.72119030E-05
   62.9536896         3.85223138E-05
   63.0804825         3.95311617E-05
   63.2072754         4.02289988E-05
   63.3340683         4.06146464E-05
   63.4608612         4.06951585E-05
   63.5876541         4.04856146E-05
   63.7144470         4.00086465E-05
   63.8412399         3.92937109E-05
   63.9680328         3.83761726E-05
   64.0948257         3.72962058E-05
   64.2216187         3.60975137E-05
   64.3484116         3.48259673E-05
   64.4752045         3.35281366E-05
   64.6019974         3.22497872E-05
   64.7287903         3.10344294E-05
   64.8555832         2.99218937E-05
   64.9823761         2.89470499E-05
   65.1091690         2.81386438E-05
   65.2359619         2.75183302E-05
   65.3627548         2.70998971E-05
   65.4895477         2.68887779E-05
   65.6163330         2.68817585E-05
   65.7431259         2.70670098E-05
   65.8699188         2.74243721E-05
   65.9967117         2.79259639E-05
   66.1235046         2.85369606E-05
   66.2502975         2.92166951E-05
   66.3770905         2.99198982E-05
   66.5038834         3.05981375E-05
   66.6306763         3.12013653E-05
   66.7574692         3.16795631E-05
   66.8842621         3.19843930E-05
   67.0110550         3.20708350E-05
   67.1378479         3.18987586E-05
   67.2646408         3.14343743E-05
   67.3914337         3.06514994E-05
   67.5182266         2.95326663E-05
   67.6450195         2.80699041E-05
   67.7718124         2.62652775E-05
   67.8986053         2.41311973E-05
   68.0253983         2.16903118E-05
   68.1521912         1.89752263E-05
   68.2789841         1.60278269E-05
   68.4057770         1.28983784E-05
   68.5325699         9.64438641E-06
   68.6593628         6.32927004E-06
   68.7861557         3.02073636E-06
   68.9129486        -2.10823856E-07
   69.0397415        -3.29412956E-06
   69.1665344        -6.15877934E-06
   69.2933273        -8.73703630E-06
   69.4201126        -1.09654857E-05
   69.5469055        -1.27866006E-05
   69.6736984        -1.41501559E-05
   69.8004913        -1.50144087E-05
   69.9272842        -1.53470755E-05
   70.0540771        -1.51260756E-05
   70.1808701        -1.43399811E-05
   70.3076630        -1.29881710E-05
   70.4344559        -1.10807359E-05
   70.5612488        -8.63807509E-06
   70.6880417        -5.69026042E-06
   70.8148346        -2.27615237E-06
   70.9416275         1.55770920E-06
   71.0684204         5.75832792E-06
   71.1952133         1.02676449E-05
   71.3220062         1.50239703E-05
   71.4487991         1.99635560E-05
   71.5755920         2.50220983E-05
   71.7023849         3.01362270E-05
   71.8291779         3.52449242E-05
   71.9559708         4.02908736E-05
   72.0827637         4.52215863E-05
   72.2095566         4.99904236E-05
   72.3363495         5.45573712E-05
   72.4631424         5.88896364E-05
   72.5899353         6.29619753E-05
   72.7167282         6.67568747E-05
   72.8435211         7.02644975E-05
   72.9703140         7.34824280E-05
   73.0971069         7.64152574E-05
   73.2238922         7.90739577E-05
   73.3506851         8.14752057E-05
   73.4774780         8.36404797E-05
   73.6042709         8.55951657E-05
   73.7310638         8.73676036E-05
   73.8578568         8.89880757E-05
   73.9846497         9.04878689E-05
   74.1114426         9.18984006E-05
   74.2382355         9.32503754E-05
   74.3650284         9.45730935E-05
   74.4918213         9.58937817E-05
   74.6186142         9.72371054E-05
   74.7454071         9.86247833E-05
   74.8722000         1.00075304E-04
   74.9989929         1.01603844E-04
   75.1257858         1.03222221E-04
   75.2525787         1.04939048E-04
   75.3793716         1.06759893E-04
   75.5061646         1.08687629E-04
   75.6329575         1.10722656E-04
   75.7597504         1.12863381E-04
   75.8865433         1.15106552E-04
   76.0133362         1.17447555E-04
   76.1401291         1.19880890E-04
   76.2669220         1.22400335E-04
   76.3937149         1.24999264E-04
   76.5205078         1.27670777E-04
   76.6473007         1.30407891E-04
   76.7740936         1.33203459E-04
   76.9008865         1.36050192E-04
   77.0276718         1.38940464E-04
   77.1544647         1.41865996E-04
   77.2812576         1.44817677E-04
   77.4080505         1.47785075E-04
   77.5348434         1.50756168E-04
   77.6616364         1.53716886E-04
   77.7884293         1.56650800E-04
   77.9152222         1.59538744E-04
   78.0420151         1.62358425E-04
   78.1688080         1.65084290E-04
   78.2956009         1.67687220E-04
   78.4223938         1.70134590E-04
   78.5491867         1.72390268E-04
   78.6759796         1.74414788E-04
   78.8027725         1.76165704E-04
   78.9295654         1.77598064E-04
   79.0563583         1.78664923E-04
   79.1831512         1.79318187E-04
   79.3099442         1.79509254E-04
   79.4367371         1.79189970E-04
   79.5635300         1.78313669E-04
   79.6903229         1.76835994E-04
   79.8171158         1.74716028E-04
   79.9439087         1.71917258E-04
   80.0707016         1.68408587E-04
   80.1974945         1.64165045E-04
   80.3242874         1.59168703E-04
   80.4510803         1.53409201E-04
   80.5778732         1.46884297E-04
   80.7046585         1.39600146E-04
   80.8314514         1.31571520E-04
   80.9582443         1.22821744E-04
   81.0850372         1.13382514E-04
   81.2118301         1.03293532E-04
   81.3386230         9.26019857E-05
   81.4654160         8.13618390E-05
   81.5922089         6.96330753E-05
   81.7190018         5.74807891E-05
   81.8457947         4.49742147E-05
   81.9725876         3.21857078E-05
   82.0993805         1.91896761E-05
   82.2261734         6.06153890E-06
   82.3529663        -7.12332076E-06
   82.4797592        -2.02905467E-05
   82.6065521        -3.33677635E-05
   82.7333450        -4.62854223E-05
   82.8601379        -5.89775627E-05
   82.9869308        -7.13825139E-05
   83.1137238        -8.34433959E-05
   83.2405167        -9.51086186E-05
   83.3673096        -1.06332205E-04
   83.4941025        -1.17074043E-04
   83.6208954        -1.27300023E-04
   83.7476883        -1.36982097E-04
   83.8744812        -1.46098246E-04
   84.0012741        -1.54632347E-04
   84.1280670        -1.62573968E-04
   84.2548599        -1.69918145E-04
   84.3816528        -1.76664966E-04
   84.5084381        -1.82819291E-04
   84.6352310        -1.88390288E-04
   84.7620239        -1.93391068E-04
   84.8888168        -1.97838206E-04
   85.0156097        -2.01751289E-04
   85.1424026        -2.05152450E-04
   85.2691956        -2.08065918E-04
   85.3959885        -2.10517552E-04
   85.5227814        -2.12534433E-04
   85.6495743        -2.14144457E-04
   85.7763672        -2.15375941E-04
   85.9031601        -2.16257278E-04
   86.0299530        -2.16816639E-04
   86.1567459        -2.17081819E-04
   86.2835388        -2.17080000E-04
   86.4103317        -2.16837565E-04
   86.5371246        -2.16380038E-04
   86.6639175        -2.15731998E-04
   86.7907104        -2.14917120E-04
   86.9175034        -2.13958105E-04
   87.0442963        -2.12876868E-04
   87.1710892        -2.11694583E-04
   87.2978821        -2.10431768E-04
   87.4246750        -2.09108548E-04
   87.5514679        -2.07744670E-04
   87.6782608        -2.06359735E-04
   87.8050537        -2.04973214E-04
   87.9318466        -2.03604606E-04
   88.0586395        -2.02273412E-04
   88.1854324        -2.00999159E-04
   88.3122177        -1.99801318E-04
   88.4390106        -1.98699243E-04
   88.5658035        -1.97711881E-04
   88.6925964        -1.96857596E-04
   88.8193893        -1.96153822E-04
   88.9461823        -1.95616507E-04
   89.0729752        -1.95259752E-04
   89.1997681        -1.95095199E-04
   89.3265610        -1.95131506E-04
   89.4533539        -1.95373796E-04
   89.5801468        -1.95823101E-04
   89.7069397        -1.96475827E-04
   89.8337326        -1.97323345E-04
   89.9605255        -1.98351539E-04
   90.0873184        -1.99540649E-04
   90.2141113        -2.00865063E-04
   90.3409042        -2.02293450E-04
   90.4676971        -2.03788892E-04
   90.5944901        -2.05309479E-04
   90.7212830        -2.06808880E-04
   90.8480759        -2.08237223E-04
   90.9748688        -2.09542137E-04
   91.1016617        -2.10669925E-04
   91.2284546        -2.11566876E-04
   91.3552475        -2.12180632E-04
   91.4820404        -2.12461688E-04
   91.6088333        -2.12364917E-04
   91.7356262        -2.11850929E-04
   91.8624191        -2.10887432E-04
   91.9892120        -2.09450431E-04
   92.1159973        -2.07525198E-04
   92.2427902        -2.05106946E-04
   92.3695831        -2.02201263E-04
   92.4963760        -1.98824186E-04
   92.6231689        -1.95002009E-04
   92.7499619        -1.90770748E-04
   92.8767548        -1.86175224E-04
   93.0035477        -1.81268042E-04
   93.1303406        -1.76108006E-04
   93.2571335        -1.70758605E-04
   93.3839264        -1.65286125E-04
   93.5107193        -1.59757692E-04
   93.6375122        -1.54239329E-04
   93.7643051        -1.48793988E-04
   93.8910980        -1.43479774E-04
   94.0178909        -1.38348172E-04
   94.1446838        -1.33442678E-04
   94.2714767        -1.28797576E-04
   94.3982697        -1.24437123E-04
   94.5250626        -1.20374942E-04
   94.6518555        -1.16613854E-04
   94.7786484        -1.13146118E-04
   94.9054413        -1.09953929E-04
   95.0322342        -1.07010317E-04
   95.1590271        -1.04280378E-04
   95.2858200        -1.01722719E-04
   95.4126129        -9.92911155E-05
   95.5394058        -9.69363464E-05
   95.6661987        -9.46080108E-05
   95.7929916        -9.22564795E-05
   95.9197769        -8.98346480E-05
   96.0465698        -8.72997189E-05
   96.1733627        -8.46146941E-05
   96.3001556        -8.17497130E-05
   96.4269485        -7.86830788E-05
   96.5537415        -7.54020366E-05
   96.6805344        -7.19031232E-05
   96.8073273        -6.81922320E-05
   96.9341202        -6.42843079E-05
   97.0609131        -6.02027503E-05
   97.1877060        -5.59785040E-05
   97.3144989        -5.16488908E-05
   97.4412918        -4.72563006E-05
   97.5680847        -4.28466337E-05
   97.6948776        -3.84677223E-05
   97.8216705        -3.41676823E-05
   97.9484634        -2.99932708E-05
   98.0752563        -2.59883454E-05