  -4.50000000         0.00000000    
  -4.37320757         0.00000000    
  -4.24641466         0.00000000    
  -4.11962223         0.00000000    
  -3.99282932         0.00000000    
  -3.86603665         0.00000000    
  -3.73924398         0.00000000    
  -3.61245155        -6.19384289E-31
  -3.48565888        -2.19612343E-30
  -3.35886621        -1.40105219E-29
  -3.23207355        -4.50341704E-29
  -3.10528088         1.07415577E-28
  -2.97848821         1.05364324E-27
  -2.85169554         3.41112546E-27
  -2.72490287         4.85123842E-27
  -2.59811020        -7.62051883E-27
  -2.47131753        -6.73724622E-26
  -2.34452486        -2.21836463E-25
  -2.21773219        -4.68516472E-25
  -2.09093952        -5.81576905E-25
  -1.96414697         1.69410024E-25
  -1.83735430         3.23287900E-24
  -1.71056163         1.04549613E-23
  -1.58376896         2.25271270E-23
  -1.45697629         3.57341999E-23
  -1.33018374         3.77350730E-23
  -1.20339108         5.43966098E-24
  -1.07659841        -8.93403151E-23
 -0.949805737        -2.60185562E-22
 -0.823013067        -4.70639364E-22
 -0.696220458        -5.93288782E-22
 -0.569427788        -3.90597068E-22
 -0.442635119         4.42085931E-22
 -0.315842479         2.13610911E-21
 -0.189049825         4.61369923E-21
  -6.22571707E-02     7.22929441E-21
   6.45354837E-02     8.64272797E-21
  0.191328138         7.02578132E-21
  0.318120778         7.57124463E-22
  0.444913447        -1.04180054E-20
  0.571706116        -2.40815751E-20
  0.698498726        -3.43234815E-20
  0.825291395        -3.22163293E-20
  0.952084064        -8.24599227E-21
   1.07887673         4.32098989E-20
   1.20566940         1.18201964E-19
   1.33246195         1.98221542E-19
   1.45925462         2.48523597E-19
   1.58604729         2.22306806E-19
   1.71283996         7.21120484E-20
   1.83963263        -2.32458690E-19
   1.96642530        -6.84416787E-19
   2.09321785        -1.22259621E-18
   2.22001052        -1.72547053E-18
   2.34680319        -2.02123444E-18
   2.47359586        -1.91591760E-18
   2.60038853        -1.23586977E-18
   2.72718120         1.24146846E-19
   2.85397387         2.15851685E-18
   2.98076653         4.72345069E-18
   3.10755920         7.52826174E-18
   3.23435187         1.01408646E-17
   3.36114454         1.19980141E-17
   3.48793697         1.24133382E-17
   3.61472964         1.05894099E-17
   3.74152231         5.66174565E-18
   3.86831498        -3.17569919E-18
   3.99510765        -1.64068379E-17
   4.12190056        -3.37580481E-17
   4.24869299        -5.36208682E-17
   4.37548542        -7.24631326E-17
   4.50227833        -8.44716775E-17
   4.62907076        -8.17536084E-17
   4.75586367        -5.54219381E-17
   4.88265610         2.24046584E-18
   5.00944901         9.46280062E-17
   5.13624144         2.17163035E-16
   5.26303434         3.54076713E-16
   5.38982677         4.76871714E-16
   5.51661968         5.45774933E-16
   5.64341211         5.15144369E-16
   5.77020502         3.43008110E-16
   5.89699745         3.76087385E-18
   6.02379036        -4.98236479E-16
   6.15058279        -1.11748030E-15
   6.27737522        -1.76237413E-15
   6.40416813        -2.29987318E-15
   6.53096056        -2.57160643E-15
   6.65775347        -2.42097178E-15
   6.78454590        -1.72779612E-15
   6.91133881        -4.44438982E-16
   7.03813124         1.37463389E-15
   7.16492414         3.55805803E-15
   7.29171658         5.82422014E-15
   7.41850948         7.81257874E-15
   7.54530191         9.13819378E-15
   7.67209482         9.46288861E-15
   7.79888725         8.57212674E-15
   7.92567968         6.44395180E-15
   8.05247211         3.29605295E-15
   8.17926502        -4.00803894E-16
   8.30605793        -3.95034779E-15
   8.43285084        -6.50104733E-15
   8.55964279        -7.15466877E-15
   8.68643570        -5.10334598E-15
   8.81322861         2.18566013E-16
   8.94002151         8.98393637E-15
   9.06681347         2.08402292E-14
   9.19360638         3.48106960E-14
   9.32039928         4.92435716E-14
   9.44719219         6.18209572E-14
   9.57398415         6.96359948E-14
   9.70077705         6.93432874E-14
   9.82756996         5.73824842E-14
   9.95436192         3.02693797E-14
   10.0811548        -1.50581604E-14
   10.2079477        -8.08591407E-14
   10.3347406        -1.68199791E-13
   10.4615326        -2.76587293E-13
   10.5883255        -4.03661452E-13
   10.7151184        -5.44978017E-13
   10.8419113        -6.93912321E-13
   10.9687033        -8.41703497E-13
   11.0954962        -9.77646783E-13
   11.2222891        -1.08942694E-12
   11.3490820        -1.16357076E-12
   11.4758739        -1.18598295E-12
   11.6026669        -1.14252227E-12
   11.7294598        -1.01956865E-12
   11.8562517        -8.04540787E-13
   11.9830446        -4.86334931E-13
   12.1098375        -5.56843830E-14
   12.2366304         4.94537625E-13
   12.3634224         1.16901822E-12
   12.4902153         1.96961588E-12
   12.6170082         2.89479421E-12
   12.7438011         3.93876468E-12
   12.8705931         5.09025678E-12
   12.9973860         6.33086986E-12
   13.1241789         7.63300274E-12
   13.2509708         8.95743982E-12
   13.3777637         1.02507282E-11
   13.5045567         1.14425717E-11
   13.6313496         1.24434976E-11
   13.7581415         1.31431645E-11
   13.8849344         1.34096588E-11
   14.0117273         1.30902181E-11
   14.1385202         1.20138491E-11
   14.2653122         9.99627898E-12
   14.3921051         6.84768171E-12
   14.5188980         2.38365621E-12
   14.6456909        -3.56032608E-12
   14.7724829        -1.11108345E-11
   14.8992758        -2.03349455E-11
   15.0260687        -3.12157661E-11
   15.1528606        -4.36260958E-11
   15.2796535        -5.73016738E-11
   15.4064465        -7.18162682E-11
   15.5332394        -8.65610361E-11
   15.6600313        -1.00731361E-10
   15.7868242        -1.13324315E-10
   15.9136171        -1.23150018E-10
   16.0404091        -1.28859826E-10
   16.1672020        -1.28993496E-10
   16.2939949        -1.22046637E-10
   16.4207878        -1.06558408E-10
   16.5475807        -8.12176437E-11
   16.6743736        -4.49845404E-11
   16.8011646         2.77781791E-12
   16.9279575         6.21684926E-11
   17.0547504         1.32618874E-10
   17.1815434         2.12777559E-10
   17.3083363         3.00420189E-10
   17.4351292         3.92394756E-10
   17.5619221         4.84613127E-10
   17.6887150         5.72096148E-10
   17.8155060         6.49081733E-10
   17.9422989         7.09197756E-10
   18.0690918         7.45703110E-10
   18.1958847         7.51793905E-10
   18.3226776         7.20966231E-10
   18.4494705         6.47427056E-10
   18.5762634         5.26535482E-10
   18.7030544         3.55255547E-10
   18.8298473         1.32597114E-10
   18.9566402        -1.39981110E-10
   19.0834332        -4.58233895E-10
   19.2102261        -8.14885270E-10
   19.3370190        -1.19950405E-09
   19.4638119        -1.59852220E-09
   19.5906048        -1.99541539E-09
   19.7173958        -2.37106068E-09
   19.8441887        -2.70427192E-09
   19.9709816        -2.97251534E-09
   20.0977745        -3.15279114E-09
   20.2245674        -3.22265681E-09
   20.3513603        -3.16136606E-09
   20.4781532        -2.95107783E-09
   20.6049442        -2.57809085E-09
   20.7317371        -2.03404893E-09
   20.8585300        -1.31705646E-09
   20.9853230        -4.32643421E-10
   21.1121159         6.05483275E-10
   21.2389088         1.77495685E-09
   21.3657017         3.04459724E-09
   21.4924946         4.37462466E-09
   21.6192856         5.71727865E-09
   21.7460785         7.01786185E-09
   21.8728714         8.21621349E-09
   21.9996643         9.24859744E-09
   22.1264572         1.00499680E-08
   22.2532501         1.05565681E-08
   22.3800430         1.07087725E-08
   22.5068340         1.04540918E-08
   22.6336269         9.75022729E-09
   22.7604198         8.56804228E-09
   22.8872128         6.89432111E-09
   23.0140057         4.73417927E-09
   23.1407986         2.11297113E-09
   23.2675915        -9.22427135E-10
   23.3943844        -4.30308544E-09
   23.5211754        -7.93834243E-09
   23.6479683        -1.17170531E-08
   23.7747612        -1.55098103E-08
   23.9015541        -1.91721554E-08
   24.0283470        -2.25487273E-08
   24.1551399        -2.54782933E-08
   24.2819328        -2.77995209E-08
   24.4087238        -2.93573681E-08
   24.5355167        -3.00098186E-08
   24.6623096        -2.96347995E-08
   24.7891026        -2.81369399E-08
   24.9158955        -2.54539376E-08
   25.0426884        -2.15621991E-08
   25.1694813        -1.64814580E-08
   25.2962742        -1.02781037E-08
   25.4230652        -3.06695158E-09
   25.5498581         4.98874764E-09
   25.6766510         1.36792169E-08
   25.8034439         2.27520704E-08
   25.9302368         3.19182298E-08
   26.0570297         4.08597991E-08
   26.1838226         4.92397234E-08
   26.3106136         5.67129383E-08
   26.4374065         6.29387529E-08
   26.5641994         6.75940228E-08
   26.6909924         7.03865908E-08
   26.8177853         7.10685910E-08
   26.9445782         6.94489373E-08
   27.0713711         6.54045422E-08
   27.1981640         5.88896576E-08
   27.3249550         4.99428658E-08
   27.4517479         3.86912795E-08
   27.5785408         2.53515928E-08
   27.7053337         1.02277564E-08
   27.8321266        -6.29486951E-09
   27.9589195        -2.37588278E-08
   28.0857124        -4.16471941E-08
   28.2125034        -5.93992091E-08
   28.3392963        -7.64284422E-08
   28.4660892        -9.21428764E-08
   28.5928822        -1.05966315E-07
   28.7196751        -1.17360116E-07
   28.8464680        -1.25844593E-07
   28.9732609        -1.31019135E-07
   29.1000538        -1.32580013E-07
   29.2268448        -1.30335351E-07
   29.3536377        -1.24216257E-07
   29.4804306        -1.14283480E-07
   29.6072235        -1.00729473E-07
   29.7340164        -8.38750509E-08
   29.8608093        -6.41609930E-08
   29.9876022        -4.21345447E-08
   30.1143932        -1.84312050E-08
   30.2411861         6.24762242E-09
   30.3679790         3.11602442E-08
   30.4947720         5.55527073E-08
   30.6215649         7.86880321E-08
   30.7483578         9.98754217E-08
   30.8751507         1.18498271E-07
   31.0019417         1.34039553E-07
   31.1287346         1.46103488E-07
   31.2555275         1.54432428E-07
   31.3823204         1.58917899E-07
   31.5091133         1.59605335E-07
   31.6359062         1.56691911E-07
   31.7626991         1.50517536E-07
   31.8894920         1.41549094E-07
   32.0162849         1.30358657E-07
   32.1430779         1.17596223E-07
   32.2698708         1.03958520E-07
   32.3966637         9.01547992E-08
   32.5234528         7.68714941E-08
   32.6502457         6.47371863E-08
   32.7770386         5.42896075E-08
   32.9038315         4.59463045E-08
   33.0306244         3.99804563E-08
   33.1574173         3.65030353E-08
   33.2842102         3.54524197E-08
   33.4110031         3.65921586E-08
   33.5377960         3.95170296E-08
   33.6645889         4.36675691E-08
   33.7913818         4.83523301E-08
   33.9181747         5.27772670E-08
   34.0449677         5.60807294E-08
   34.1717606         5.73730006E-08
   34.2985535         5.57781199E-08
   34.4253426         5.04764905E-08
   34.5521355         4.07462650E-08
   34.6789284         2.60011532E-08
   34.8057213         5.82354609E-09
   34.9325142        -2.00092973E-08
   35.0593071        -5.15066461E-08
   35.1861000        -8.84549678E-08
   35.3128929        -1.30417689E-07
   35.4396858        -1.76744379E-07
   35.5664787        -2.26588924E-07
   35.6932716        -2.78935772E-07
   35.8200645        -3.32632709E-07
   35.9468575        -3.86428837E-07
   36.0736504        -4.39015281E-07
   36.2004433        -4.89067020E-07
   36.3272324        -5.35283164E-07
   36.4540253        -5.76423361E-07
   36.5808182        -6.11339260E-07
   36.7076111        -6.38997790E-07
   36.8344040        -6.58496788E-07
   36.9611969        -6.69070687E-07
   37.0879898        -6.70087275E-07
   37.2147827        -6.61035585E-07
   37.3415756        -6.41505039E-07
   37.4683685        -6.11160374E-07
   37.5951614        -5.69711347E-07
   37.7219543        -5.16882380E-07
   37.8487473        -4.52384143E-07
   37.9755402        -3.75890750E-07
   38.1023293        -2.87025529E-07
   38.2291222        -1.85358161E-07
   38.3559151        -7.04165188E-08
   38.4827080         5.82856003E-08
   38.6095009         2.01202980E-07
   38.7362938         3.58695758E-07
   38.8630867         5.30948626E-07
   38.9898796         7.17874798E-07
   39.1166725         9.19006197E-07
   39.2434654         1.13337501E-06
   39.3702583         1.35938910E-06
   39.4970512         1.59470949E-06
   39.6238441         1.83613110E-06
   39.7506371         2.07947869E-06
   39.8774300         2.31951822E-06
   40.0042191         2.54989413E-06
   40.1310120         2.76309447E-06
   40.2578049         2.95045197E-06
   40.3845978         3.10218161E-06
   40.5113907         3.20745767E-06
   40.6381836         3.25453493E-06
   40.7649765         3.23090626E-06
   40.8917694         3.12350221E-06
   41.0185623         2.91892479E-06
   41.1453552         2.60370871E-06
   41.2721481         2.16460876E-06
   41.3989410         1.58889975E-06
   41.5257339         8.64684125E-07
   41.6525269        -1.88037141E-08
   41.7793198        -1.07090693E-06
   41.9061089        -2.29927991E-06
   42.0329018        -3.70965222E-06
   42.1596947        -5.30563739E-06
   42.2864876        -7.08858943E-06
   42.4132805        -9.05751494E-06
   42.5400734        -1.12090511E-05
   42.6668663        -1.35375003E-05
   42.7936592        -1.60349373E-05
   42.9204521        -1.86913712E-05
   43.0472450        -2.14949741E-05
   43.1740379        -2.44323601E-05
   43.3008308        -2.74889098E-05
   43.4276237        -3.06491311E-05
   43.5544167        -3.38970458E-05
   43.6812096        -3.72165923E-05
   43.8079987        -4.05920073E-05
   43.9347916        -4.40082149E-05
   44.0615845        -4.74511689E-05
   44.1883774        -5.09081619E-05
   44.3151703        -5.43680726E-05
   44.4419632        -5.78215586E-05
   44.5687561        -6.12611475E-05
   44.6955490        -6.46812914E-05
   44.8223419        -6.80782759E-05
   44.9491348        -7.14501002E-05
   45.0759277        -7.47962695E-05
   45.2027206        -7.81174385E-05
   45.3295135        -8.14151135E-05
   45.4563065        -8.46911789E-05
   45.5830994        -8.79474246E-05
   45.7098885        -9.11850875E-05
   45.8366814        -9.44043131E-05
   45.9634743        -9.76037045E-05
   46.0902672        -1.00779827E-04
   46.2170601        -1.03926810E-04
   46.3438530        -1.07036045E-04
   46.4706459        -1.10095862E-04
   46.5974388        -1.13091446E-04
   46.7242317        -1.16004827E-04
   46.8510246        -1.18814889E-04
   46.9778175        -1.21497666E-04
   47.1046104        -1.24026672E-04
   47.2314034        -1.26373416E-04
   47.3581963        -1.28507920E-04
   47.4849892        -1.30399567E-04
   47.6117783        -1.32017769E-04
   47.7385712        -1.33332927E-04
   47.8653641        -1.34317277E-04
   47.9921570        -1.34945891E-04
   48.1189499        -1.35197552E-04
   48.2457428        -1.35055670E-04
   48.3725357        -1.34509071E-04
   48.4993286        -1.33552763E-04
   48.6261215        -1.32188419E-04
   48.7529144        -1.30424974E-04
   48.8797073        -1.28278771E-04
   49.0065002        -1.25773702E-04
   49.1332932        -1.22941114E-04
   49.2600861        -1.19819480E-04
   49.3868790        -1.16453870E-04
   49.5136681        -1.12895330E-04
   49.6404610        -1.09199937E-04
   49.7672539        -1.05427804E-04
   49.8940468        -1.01641948E-04
   50.0208397        -9.79069519E-05
   50.1476326        -9.42877305E-05
   50.2744255        -9.08480724E-05
   50.4012184        -8.76493577E-05
   50.5280113        -8.47491829E-05
   50.6548042        -8.22001530E-05
   50.7815971        -8.00487178E-05
   50.9083900        -7.83342111E-05
   51.0351830        -7.70879997E-05
   51.1619759        -7.63328935E-05
   51.2887688        -7.60826952E-05
   51.4155579        -7.63420030E-05
   51.5423508        -7.71062041E-05
   51.6691437        -7.83617506E-05
   51.7959366        -8.00865892E-05
   51.9227295        -8.22507573E-05
   52.0495224        -8.48172422E-05
   52.1763153        -8.77428902E-05
   52.3031082        -9.09795199E-05
   52.4299011        -9.44750063E-05
   52.5566940        -9.81745616E-05
   52.6834869        -1.02021899E-04
   52.8102798        -1.05960447E-04
   52.9370728        -1.09934488E-04
   53.0638657        -1.13890230E-04
   53.1906586        -1.17776763E-04
   53.3174477        -1.21546880E-04
   53.4442406        -1.25157778E-04
   53.5710335        -1.28571599E-04
   53.6978264        -1.31755733E-04
   53.8246193        -1.34683083E-04
   53.9514122        -1.37332114E-04
   54.0782051        -1.39686730E-04
   54.2049980        -1.41736091E-04
   54.3317909        -1.43474215E-04
   54.4585838        -1.44899575E-04
   54.5853767        -1.46014645E-04
   54.7121696        -1.46825289E-04
   54.8389626        -1.47340223E-04
   54.9657555        -1.47570521E-04
   55.0925484        -1.47528990E-04
   55.2193375        -1.47229744E-04
   55.3461304        -1.46687744E-04
   55.4729233        -1.45918500E-04
   55.5997162        -1.44937716E-04
   55.7265091        -1.43761165E-04
   55.8533020        -1.42404504E-04
   55.9800949        -1.40883320E-04
   56.1068878        -1.39213167E-04
   56.2336807        -1.37409574E-04
   56.3604736        -1.35488270E-04
   56.4872665        -1.33465364E-04
   56.6140594        -1.31357476E-04
   56.7408524        -1.29181964E-04
   56.8676453        -1.26957035E-04
   56.9944382        -1.24701895E-04
   57.1212273        -1.22436846E-04
   57.2480202        -1.20183220E-04
   57.3748131        -1.17963369E-04
   57.5016060        -1.15800489E-04
   57.6283989        -1.13718408E-04
   57.7551918        -1.11741283E-04
   57.8819847        -1.09893226E-04
   58.0087776        -1.08197877E-04
   58.1355705        -1.06677930E-04
   58.2623634        -1.05354629E-04
   58.3891563        -1.04247236E-04
   58.5159492        -1.03372513E-04
   58.6427422        -1.02744270E-04
   58.7695351        -1.02372862E-04
   58.8963280        -1.02264879E-04
   59.0231171        -1.02422782E-04
   59.1499100        -1.02844722E-04
   59.2767029        -1.03524471E-04
   59.4034958        -1.04451399E-04
   59.5302887        -1.05610590E-04
   59.6570816        -1.06983127E-04
   59.7838745        -1.08546395E-04
   59.9106674        -1.10274566E-04
   60.0374603        -1.12139111E-04
   60.1642532        -1.14109418E-04
   60.2910461        -1.16153424E-04
   60.4178391        -1.18238342E-04
   60.5446320        -1.20331322E-04
   60.6714249        -1.22400146E-04
   60.7982178        -1.24413928E-04
   60.9250069        -1.26343657E-04
   61.0517998        -1.28162792E-04
   61.1785927        -1.29847700E-04
   61.3053856        -1.31378067E-04
   61.4321785        -1.32737157E-04
   61.5589714        -1.33911992E-04
   61.6857643        -1.34893417E-04
   61.8125572        -1.35676150E-04
   61.9393501        -1.36258619E-04
   62.0661430        -1.36642804E-04
   62.1929359        -1.36833987E-04
   62.3197289        -1.36840434E-04
   62.4465218        -1.36672999E-04
   62.5733147        -1.36344854E-04
   62.7001076        -1.35870927E-04
   62.8268967        -1.35267648E-04
   62.9536896        -1.34552436E-04
   63.0804825        -1.33743350E-04
   63.2072754        -1.32858768E-04
   63.3340683        -1.31917041E-04
   63.4608612        -1.30936169E-04
   63.5876541        -1.29933644E-04
   63.7144470        -1.28926171E-04
   63.8412399        -1.27929568E-04
   63.9680328        -1.26958621E-04
   64.0948257        -1.26026993E-04
   64.2216187        -1.25147228E-04
   64.3484116        -1.24330676E-04
   64.4752045        -1.23587568E-04
   64.6019974        -1.22927013E-04
   64.7287903        -1.22357000E-04
   64.8555832        -1.21884565E-04
   64.9823761        -1.21515790E-04
   65.1091690        -1.21255900E-04
   65.2359619        -1.21109384E-04
   65.3627548        -1.21080069E-04
   65.4895477        -1.21171215E-04
   65.6163330        -1.21385696E-04
   65.7431259        -1.21726021E-04
   65.8699188        -1.22194528E-04
   65.9967117        -1.22793470E-04
   66.1235046        -1.23525111E-04
   66.2502975        -1.24391867E-04
   66.3770905        -1.25396356E-04
   66.5038834        -1.26541549E-04
   66.6306763        -1.27830688E-04
   66.7574692        -1.29267442E-04
   66.8842621        -1.30855813E-04
   67.0110550        -1.32600078E-04
   67.1378479        -1.34504720E-04
   67.2646408        -1.36574236E-04
   67.3914337        -1.38812917E-04
   67.5182266        -1.41224649E-04
   67.6450195        -1.43812475E-04
   67.7718124        -1.46578357E-04
   67.8986053        -1.49522704E-04
   68.0253983        -1.52643988E-04
   68.1521912        -1.55938309E-04
   68.2789841        -1.59398987E-04
   68.4057770        -1.63016142E-04
   68.5325699        -1.66776343E-04
   68.6593628        -1.70662403E-04
   68.7861557        -1.74653091E-04
   68.9129486        -1.78723130E-04
   69.0397415        -1.82843200E-04
   69.1665344        -1.86980105E-04
   69.2933273        -1.91097119E-04
   69.4201126        -1.95154484E-04
   69.5469055        -1.99109927E-04
   69.6736984        -2.02919531E-04
   69.8004913        -2.06538520E-04
   69.9272842        -2.09922335E-04
   70.0540771        -2.13027641E-04
   70.1808701        -2.15813445E-04
   70.3076630        -2.18242261E-04
   70.4344559        -2.20281261E-04
   70.5612488        -2.21903305E-04
   70.6880417        -2.23087904E-04
   70.8148346        -2.23822077E-04
   70.9416275        -2.24101022E-04
   71.0684204        -2.23928655E-04
   71.1952133        -2.23317766E-04
   71.3220062        -2.22290080E-04
   71.4487991        -2.20876042E-04
   71.5755920        -2.19114299E-04
   71.7023849        -2.17050983E-04
   71.8291779        -2.14738728E-04
   71.9559708        -2.12235405E-04
   72.0827637        -2.09602847E-04
   72.2095566        -2.06905228E-04
   72.3363495        -2.04207463E-04
   72.4631424        -2.01573508E-04
   72.5899353        -1.99064612E-04
   72.7167282        -1.96737732E-04
   72.8435211        -1.94643915E-04
   72.9703140        -1.92826948E-04
   73.0971069        -1.91322106E-04
   73.2238922        -1.90155173E-04
   73.3506851        -1.89341794E-04
   73.4774780        -1.88887076E-04
   73.6042709        -1.88785503E-04
   73.7310638        -1.89021172E-04
   73.8578568        -1.89568396E-04
   73.9846497        -1.90392544E-04
   74.1114426        -1.91451210E-04
   74.2382355        -1.92695545E-04
   74.3650284        -1.94071938E-04
   74.4918213        -1.95523578E-04
   74.6186142        -1.96992405E-04
   74.7454071        -1.98420836E-04
   74.8722000        -1.99753544E-04
   74.9989929        -2.00939248E-04
   75.1257858        -2.01932096E-04
   75.2525787        -2.02693089E-04
   75.3793716        -2.03191099E-04
   75.5061646        -2.03403601E-04
   75.6329575        -2.03317133E-04
   75.7597504        -2.02927418E-04
   75.8865433        -2.02239185E-04
   76.0133362        -2.01265429E-04
   76.1401291        -2.00026741E-04
   76.2669220        -1.98550028E-04
   76.3937149        -1.96867244E-04
   76.5205078        -1.95013679E-04
   76.6473007        -1.93026470E-04
   76.7740936        -1.90942723E-04
   76.9008865        -1.88797829E-04
   77.0276718        -1.86623889E-04
   77.1544647        -1.84448130E-04
   77.2812576        -1.82291697E-04
   77.4080505        -1.80168543E-04
   77.5348434        -1.78084825E-04
   77.6616364        -1.76038375E-04
   77.7884293        -1.74018787E-04
   77.9152222        -1.72007756E-04
   78.0420151        -1.69979714E-04
   78.1688080        -1.67902937E-04
   78.2956009        -1.65740857E-04
   78.4223938        -1.63453777E-04
   78.5491867        -1.61000629E-04
   78.6759796        -1.58340918E-04
   78.8027725        -1.55436894E-04
   78.9295654        -1.52255481E-04
   79.0563583        -1.48770239E-04
   79.1831512        -1.44963284E-04
   79.3099442        -1.40826683E-04
   79.4367371        -1.36363917E-04
   79.5635300        -1.31590699E-04
   79.6903229        -1.26535553E-04
   79.8171158        -1.21239929E-04
   79.9439087        -1.15757975E-04
   80.0707016        -1.10155728E-04
   80.1974945        -1.04509985E-04
   80.3242874        -9.89067776E-05
   80.4510803        -9.34394629E-05
   80.5778732        -8.82066161E-05
   80.7046585        -8.33095910E-05
   80.8314514        -7.88500111E-05
   80.9582443        -7.49271931E-05
   81.0850372        -7.16355353E-05
   81.2118301        -6.90620727E-05
   81.3386230        -6.72841124E-05
   81.4654160        -6.63672399E-05
   81.5922089        -6.63634855E-05
   81.7190018        -6.73100221E-05
   81.8457947        -6.92281174E-05
   81.9725876        -7.21225806E-05
   82.0993805        -7.59816758E-05
   82.2261734        -8.07774049E-05
   82.3529663        -8.64662579E-05
   82.4797592        -9.29903908E-05
   82.6065521        -1.00279060E-04
   82.7333450        -1.08250431E-04
   82.8601379        -1.16813615E-04
   82.9869308        -1.25870851E-04
   83.1137238        -1.35319788E-04
   83.2405167        -1.45055848E-04
   83.3673096        -1.54974419E-04
   83.4941025        -1.64973055E-04
   83.6208954        -1.74953428E-04
   83.7476883        -1.84823017E-04
   83.8744812        -1.94496562E-04
   84.0012741        -2.03897216E-04
   84.1280670        -2.12957166E-04
   84.2548599        -2.21618204E-04
   84.3816528        -2.29831698E-04
   84.5084381        -2.37558299E-04
   84.6352310        -2.44767434E-04
   84.7620239        -2.51436344E-04
   84.8888168        -2.57549167E-04
   85.0156097        -2.63095601E-04
   85.1424026        -2.68069678E-04
   85.2691956        -2.72468315E-04
   85.3959885        -2.76290142E-04
   85.5227814        -2.79534201E-04
   85.6495743        -2.82198976E-04
   85.7763672        -2.84281443E-04
   85.9031601        -2.85776565E-04
   86.0299530        -2.86676892E-04
   86.1567459        -2.86972587E-04
   86.2835388        -2.86651746E-04
   86.4103317        -2.85700778E-04
   86.5371246        -2.84105452E-04
   86.6639175        -2.81851826E-04
   86.7907104        -2.78927531E-04
   86.9175034        -2.75323197E-04
   87.0442963        -2.71033845E-04
   87.1710892        -2.66060437E-04
   87.2978821        -2.60411180E-04
   87.4246750        -2.54102866E-04
   87.5514679        -2.47161894E-04
   87.6782608        -2.39625078E-04
   87.8050537        -2.31540165E-04
   87.9318466        -2.22965915E-04
   88.0586395        -2.13971900E-04
   88.1854324        -2.04637792E-04
   88.3122177        -1.95052358E-04
   88.4390106        -1.85312034E-04
   88.5658035        -1.75519104E-04
   88.6925964        -1.65779595E-04
   88.8193893        -1.56200986E-04
   88.9461823        -1.46889535E-04
   89.0729752        -1.37947718E-04
   89.1997681        -1.29471489E-04
   89.3265610        -1.21547630E-04
   89.4533539        -1.14251307E-04
   89.5801468        -1.07643813E-04
   89.7069397        -1.01770624E-04
   89.8337326        -9.66598527E-05
   89.9605255        -9.23212501E-05
   90.0873184        -8.87455171E-05
   90.2141113        -8.59043648E-05
   90.3409042        -8.37509870E-05
   90.4676971        -8.22211005E-05
   90.5944901        -8.12345825E-05
   90.7212830        -8.06974931E-05
   90.8480759        -8.05046293E-05
   90.9748688        -8.05423333E-05
   91.1016617        -8.06916432E-05
   91.2284546        -8.08316254E-05
   91.3552475        -8.08426776E-05
   91.4820404        -8.06099342E-05
   91.6088333        -8.00265188E-05
   91.7356262        -7.89963960E-05
   91.8624191        -7.74371365E-05
   91.9892120        -7.52821288E-05
   92.1159973        -7.24823767E-05
   92.2427902        -6.90077068E-05
   92.3695831        -6.48474816E-05
   92.4963760        -6.00106978E-05
   92.6231689        -5.45255498E-05
   92.7499619        -4.84384254E-05
   92.8767548        -4.18123600E-05
   93.0035477        -3.47250607E-05
   93.1303406        -2.72665784E-05
   93.2571335        -1.95365719E-05
   93.3839264        -1.16414321E-05
   93.5107193        -3.69124791E-06
   93.6375122         4.20330434E-06
   93.7643051         1.19340239E-05
   93.8910980         1.93980322E-05
   94.0178909         2.65004746E-05
   94.1446838         3.31569281E-05
   94.2714767         3.92954098E-05
   94.3982697         4.48580213E-05
   94.5250626         4.98021036E-05
   94.6518555         5.41009795E-05
   94.7786484         5.77441824E-05
   94.9054413         6.07372385E-05
   95.0322342         6.31009607E-05
   95.1590271         6.48703863E-05
   95.2858200         6.60932928E-05
   95.4126129         6.68283756E-05
   95.5394058         6.71432281E-05
   95.6661987         6.71120943E-05
   95.7929916         6.68134890E-05
   95.9197769         6.63278479E-05
   96.0465698         6.57351047E-05
   96.1733627         6.51124574E-05
   96.3001556         6.45322871E-05
   96.4269485         6.40602448E-05
   96.5537415         6.37537305E-05
   96.6805344         6.36605691E-05
   96.8073273         6.38181373E-05
   96.9341202         6.42527812E-05
   97.0609131         6.49796348E-05
   97.1877060         6.60028309E-05
   97.3144989         6.73159593E-05
   97.4412918         6.89029475E-05
   97.5680847         7.07390936E-05
   97.6948776         7.27923907E-05
   97.8216705         7.50249674E-05
   97.9484634         7.73946449E-05
   98.0752563         7.98565234E-05