  -4.50000000         0.00000000    
  -4.37320757         0.00000000    
  -4.24641466         0.00000000    
  -4.11962223         0.00000000    
  -3.99282932         0.00000000    
  -3.86603665         0.00000000    
  -3.73924398         0.00000000    
  -3.61245155         0.00000000    
  -3.48565888         0.00000000    
  -3.35886621         0.00000000    
  -3.23207355         0.00000000    
  -3.10528088         0.00000000    
  -2.97848821         0.00000000    
  -2.85169554         0.00000000    
  -2.72490287         0.00000000    
  -2.59811020         0.00000000    
  -2.47131753         0.00000000    
  -2.34452486         0.00000000    
  -2.21773219         0.00000000    
  -2.09093952         0.00000000    
  -1.96414697         0.00000000    
  -1.83735430         0.00000000    
  -1.71056163         0.00000000    
  -1.58376896         0.00000000    
  -1.45697629         0.00000000    
  -1.33018374         0.00000000    
  -1.20339108         0.00000000    
  -1.07659841         0.00000000    
 -0.949805737         0.00000000    
 -0.823013067         0.00000000    
 -0.696220458         0.00000000    
 -0.569427788         0.00000000    
 -0.442635119         0.00000000    
 -0.315842479         0.00000000    
 -0.189049825         0.00000000    
  -6.22571707E-02     0.00000000    
   6.45354837E-02     0.00000000    
  0.191328138         0.00000000    
  0.318120778         0.00000000    
  0.444913447         0.00000000    
  0.571706116         0.00000000    
  0.698498726         0.00000000    
  0.825291395         0.00000000    
  0.952084064         0.00000000    
   1.07887673         0.00000000    
   1.20566940         0.00000000    
   1.33246195         0.00000000    
   1.45925462         0.00000000    
   1.58604729         0.00000000    
   1.71283996         0.00000000    
   1.83963263         0.00000000    
   1.96642530         0.00000000    
   2.09321785         0.00000000    
   2.22001052         0.00000000    
   2.34680319         0.00000000    
   2.47359586         0.00000000    
   2.60038853         0.00000000    
   2.72718120         0.00000000    
   2.85397387         0.00000000    
   2.98076653         0.00000000    
   3.10755920         0.00000000    
   3.23435187         0.00000000    
   3.36114454         0.00000000    
   3.48793697         0.00000000    
   3.61472964         0.00000000    
   3.74152231         0.00000000    
   3.86831498         0.00000000    
   3.99510765         0.00000000    
   4.12190056         0.00000000    
   4.24869299         0.00000000    
   4.37548542         0.00000000    
   4.50227833         0.00000000    
   4.62907076         0.00000000    
   4.75586367         0.00000000    
   4.88265610         0.00000000    
   5.00944901         0.00000000    
   5.13624144         0.00000000    
   5.26303434         0.00000000    
   5.38982677         0.00000000    
   5.51661968         0.00000000    
   5.64341211         0.00000000    
   5.77020502         0.00000000    
   5.89699745         0.00000000    
   6.02379036         0.00000000    
   6.15058279         0.00000000    
   6.27737522         0.00000000    
   6.40416813         0.00000000    
   6.53096056         0.00000000    
   6.65775347         0.00000000    
   6.78454590         0.00000000    
   6.91133881         0.00000000    
   7.03813124         0.00000000    
   7.16492414         0.00000000    
   7.29171658         0.00000000    
   7.41850948         0.00000000    
   7.54530191         0.00000000    
   7.67209482         0.00000000    
   7.79888725         0.00000000    
   7.92567968         0.00000000    
   8.05247211         0.00000000    
   8.17926502         0.00000000    
   8.30605793         0.00000000    
   8.43285084         0.00000000    
   8.55964279         0.00000000    
   8.68643570         0.00000000    
   8.81322861         0.00000000    
   8.94002151         0.00000000    
   9.06681347         0.00000000    
   9.19360638         0.00000000    
   9.32039928         0.00000000    
   9.44719219         0.00000000    
   9.57398415         0.00000000    
   9.70077705         0.00000000    
   9.82756996         0.00000000    
   9.95436192         0.00000000    
   10.0811548         0.00000000    
   10.2079477         0.00000000    
   10.3347406         0.00000000    
   10.4615326         0.00000000    
   10.5883255         0.00000000    
   10.7151184         0.00000000    
   10.8419113         0.00000000    
   10.9687033         0.00000000    
   11.0954962         0.00000000    
   11.2222891         0.00000000    
   11.3490820         0.00000000    
   11.4758739         0.00000000    
   11.6026669         0.00000000    
   11.7294598         0.00000000    
   11.8562517         0.00000000    
   11.9830446         0.00000000    
   12.1098375         0.00000000    
   12.2366304         0.00000000    
   12.3634224         0.00000000    
   12.4902153         0.00000000    
   12.6170082         0.00000000    
   12.7438011         0.00000000    
   12.8705931         0.00000000    
   12.9973860         0.00000000    
   13.1241789         0.00000000    
   13.2509708         0.00000000    
   13.3777637         0.00000000    
   13.5045567         0.00000000    
   13.6313496         0.00000000    
   13.7581415         0.00000000    
   13.8849344         0.00000000    
   14.0117273         0.00000000    
   14.1385202         0.00000000    
   14.2653122         0.00000000    
   14.3921051         0.00000000    
   14.5188980         0.00000000    
   14.6456909         0.00000000    
   14.7724829         0.00000000    
   14.8992758         0.00000000    
   15.0260687         0.00000000    
   15.1528606         0.00000000    
   15.2796535         0.00000000    
   15.4064465         0.00000000    
   15.5332394         0.00000000    
   15.6600313         0.00000000    
   15.7868242         0.00000000    
   15.9136171         0.00000000    
   16.0404091         0.00000000    
   16.1672020         0.00000000    
   16.2939949         0.00000000    
   16.4207878         0.00000000    
   16.5475807         0.00000000    
   16.6743736         0.00000000    
   16.8011646         0.00000000    
   16.9279575         0.00000000    
   17.0547504         0.00000000    
   17.1815434         0.00000000    
   17.3083363         0.00000000    
   17.4351292         0.00000000    
   17.5619221         0.00000000    
   17.6887150         0.00000000    
   17.8155060         0.00000000    
   17.9422989         0.00000000    
   18.0690918         0.00000000    
   18.1958847         0.00000000    
   18.3226776         0.00000000    
   18.4494705         0.00000000    
   18.5762634         0.00000000    
   18.7030544         0.00000000    
   18.8298473         0.00000000    
   18.9566402         0.00000000    
   19.0834332         0.00000000    
   19.2102261         0.00000000    
   19.3370190         0.00000000    
   19.4638119         0.00000000    
   19.5906048         0.00000000    
   19.7173958         0.00000000    
   19.8441887         0.00000000    
   19.9709816         0.00000000    
   20.0977745         0.00000000    
   20.2245674         0.00000000    
   20.3513603         0.00000000    
   20.4781532         0.00000000    
   20.6049442         0.00000000    
   20.7317371         0.00000000    
   20.8585300         0.00000000    
   20.9853230         0.00000000    
   21.1121159         0.00000000    
   21.2389088         0.00000000    
   21.3657017         0.00000000    
   21.4924946         0.00000000    
   21.6192856         0.00000000    
   21.7460785         0.00000000    
   21.8728714         0.00000000    
   21.9996643         0.00000000    
   22.1264572         0.00000000    
   22.2532501         0.00000000    
   22.3800430         0.00000000    
   22.5068340         0.00000000    
   22.6336269         0.00000000    
   22.7604198         0.00000000    
   22.8872128         0.00000000    
   23.0140057         0.00000000    
   23.1407986         0.00000000    
   23.2675915         0.00000000    
   23.3943844         0.00000000    
   23.5211754         0.00000000    
   23.6479683         0.00000000    
   23.7747612         0.00000000    
   23.9015541         0.00000000    
   24.0283470         0.00000000    
   24.1551399         0.00000000    
   24.2819328         0.00000000    
   24.4087238         0.00000000    
   24.5355167         0.00000000    
   24.6623096         0.00000000    
   24.7891026         0.00000000    
   24.9158955         0.00000000    
   25.0426884         0.00000000    
   25.1694813         0.00000000    
   25.2962742         0.00000000    
   25.4230652         0.00000000    
   25.5498581         0.00000000    
   25.6766510         0.00000000    
   25.8034439         0.00000000    
   25.9302368         0.00000000    
   26.0570297         0.00000000    
   26.1838226         0.00000000    
   26.3106136         0.00000000    
   26.4374065         0.00000000    
   26.5641994         0.00000000    
   26.6909924         0.00000000    
   26.8177853         0.00000000    
   26.9445782         0.00000000    
   27.0713711         0.00000000    
   27.1981640         0.00000000    
   27.3249550         0.00000000    
   27.4517479         0.00000000    
   27.5785408         0.00000000    
   27.7053337         0.00000000    
   27.8321266         0.00000000    
   27.9589195         0.00000000    
   28.0857124         0.00000000    
   28.2125034         0.00000000    
   28.3392963         0.00000000    
   28.4660892         0.00000000    
   28.5928822         0.00000000    
   28.7196751         0.00000000    
   28.8464680         0.00000000    
   28.9732609        -5.14752833E-34
   29.1000538        -1.79419450E-33
   29.2268448        -1.95302601E-33
   29.3536377        -2.14998615E-33
   29.4804306        -1.05256042E-33
   29.6072235         3.34827664E-33
   29.7340164         9.52463987E-33
   29.8608093         7.60017709E-33
   29.9876022        -1.85546655E-32
   30.1143932        -5.50396371E-32
   30.2411861        -9.55188842E-32
   30.3679790        -1.30518441E-31
   30.4947720        -1.40881987E-31
   30.6215649        -1.01846876E-31
   30.7483578        -1.27627360E-32
   30.8751507         1.38219163E-31
   31.0019417         3.13874460E-31
   31.1287346         4.82560602E-31
   31.2555275         5.88459008E-31
   31.3823204         5.79613131E-31
   31.5091133         4.51440518E-31
   31.6359062         4.08051987E-31
   31.7626991         8.14796730E-31
   31.8894920         1.51124855E-30
   32.0162849         2.47179473E-30
   32.1430779         3.03610386E-30
   32.2698708         3.25837216E-30
   32.3966637         3.49567908E-30
   32.5234528         5.66321506E-30
   32.6502457         8.64708841E-30
   32.7770386         9.28382192E-30
   32.9038315         8.90708820E-30
   33.0306244         2.38352432E-30
   33.1574173        -7.29789775E-30
   33.2842102        -1.57526565E-29
   33.4110031        -2.23786936E-29
   33.5377960        -2.30601523E-29
   33.6645889        -1.72316262E-29
   33.7913818        -5.21643467E-30
   33.9181747         1.14658810E-29
   34.0449677         2.65463322E-29
   34.1717606         4.58712457E-29
   34.2985535         5.47795685E-29
   34.4253426         6.24836614E-29
   34.5521355         6.10591473E-29
   34.6789284         4.89559746E-29
   34.8057213         2.92160353E-29
   34.9325142         2.33003048E-30
   35.0593071        -2.38796310E-29
   35.1861000        -2.71512337E-29
   35.3128929        -5.06206950E-30
   35.4396858         3.59167428E-29
   35.5664787         1.08769060E-28
   35.6932716         1.89054339E-28
   35.8200645         2.69756485E-28
   35.9468575         3.29875544E-28
   36.0736504         3.61040629E-28
   36.2004433         3.57925606E-28
   36.3272324         3.24521555E-28
   36.4540253         2.53114308E-28
   36.5808182         1.48670236E-28
   36.7076111        -5.50499427E-30
   36.8344040        -1.92881956E-28
   36.9611969        -4.11701759E-28
   37.0879898        -6.52711043E-28
   37.2147827        -8.94276103E-28
   37.3415756        -1.12252615E-27
   37.4683685        -1.31895685E-27
   37.5951614        -1.46854373E-27
   37.7219543        -1.55942865E-27
   37.8487473        -1.57843373E-27
   37.9755402        -1.51426656E-27
   38.1023293        -1.35977944E-27
   38.2291222        -1.09990745E-27
   38.3559151        -7.22014814E-28
   38.4827080        -2.29589435E-28
   38.6095009         3.74818419E-28
   38.7362938         1.08462433E-27
   38.8630867         1.86904683E-27
   38.9898796         2.70618387E-27
   39.1166725         3.55486762E-27
   39.2434654         4.37119345E-27
   39.3702583         5.11140883E-27
   39.4970512         5.72483909E-27
   39.6238441         6.15558911E-27
   39.7506371         6.34813973E-27
   39.8774300         6.24183996E-27
   40.0042191         5.78080738E-27
   40.1310120         4.90737851E-27
   40.2578049         3.56888146E-27
   40.3845978         1.73367495E-27
   40.5113907        -6.09702861E-28
   40.6381836        -3.45297515E-27
   40.7649765        -6.74487244E-27
   40.8917694        -1.03938449E-26
   41.0185623        -1.42630643E-26
   41.1453552        -1.81667687E-26
   41.2721481        -2.18729312E-26
   41.3989410        -2.51118030E-26
   41.5257339        -2.75856000E-26
   41.6525269        -2.89850022E-26
   41.7793198        -2.90098606E-26
   41.9061089        -2.73825638E-26
   42.0329018        -2.38714194E-26
   42.1596947        -1.83125801E-26
   42.2864876        -1.06287652E-26
   42.4132805        -8.46491374E-28
   42.5400734         1.08881594E-26
   42.6668663         2.42899933E-26
   42.7936592         3.89207546E-26
   42.9204521         5.41885750E-26
   43.0472450         6.93442755E-26
   43.1740379         8.34945605E-26
   43.3008308         9.56221937E-26
   43.4276237         1.04624354E-25
   43.5544167         1.09364015E-25
   43.6812096         1.08741037E-25
   43.8079987         1.01772603E-25
   43.9347916         8.76876951E-26
   44.0615845         6.60273250E-26
   44.1883774         3.67431565E-26
   44.3151703         2.88228705E-28
   44.4419632        -4.23105639E-26
   44.5687561        -8.94055507E-26
   44.6955490        -1.38717517E-25
   44.8223419        -1.87369121E-25
   44.9491348        -2.31967976E-25
   45.0759277        -2.68746569E-25
   45.2027206        -2.93756122E-25
   45.3295135        -3.03118348E-25
   45.4563065        -2.93323284E-25
   45.5830994        -2.61566974E-25
   45.7098885        -2.06118582E-25
   45.8366814        -1.26688152E-25
   45.9634743        -2.47781025E-26
   46.0902672         9.60201617E-26
   46.2170601         2.29811255E-25
   46.3438530         3.68308088E-25
   46.4706459         5.00911144E-25
   46.5974388         6.14980825E-25
   46.7242317         6.96346059E-25
   46.8510246         7.30060347E-25
   46.9778175         7.01407144E-25
   47.1046104         5.97147589E-25
   47.2314034         4.06969421E-25
   47.3581963         1.25072035E-25
   47.4849892        -2.48189742E-25
   47.6117783        -7.04724847E-25
   47.7385712        -1.22731059E-24
   47.8653641        -1.78854844E-24
   47.9921570        -2.35033001E-24
   48.1189499        -2.86398811E-24
   48.2457428        -3.27129139E-24
   48.3725357        -3.50642361E-24
   48.4993286        -3.49905092E-24
   48.6261215        -3.17854581E-24
   48.7529144        -2.47927406E-24
   48.8797073        -1.34693976E-24
   49.0065002         2.54285516E-25
   49.1332932         2.33416329E-24
   49.2600861         4.86871106E-24
   49.3868790         7.79302988E-24
   49.5136681         1.09952577E-23
   49.6404610         1.43123413E-23
   49.7672539         1.75284183E-23
   49.8940468         2.03765280E-23
   50.0208397         2.25444456E-23
   50.1476326         2.36851038E-23
   50.2744255         2.34321524E-23
   50.4012184         2.14206580E-23
   50.5280113         1.73130104E-23
   50.6548042         1.08291930E-23
   50.7815971         1.78072688E-24
   50.9083900        -9.89341306E-24
   51.0351830        -2.40906619E-23
   51.1619759        -4.05110967E-23
   51.2887688        -5.86286915E-23
   51.4155579        -7.76708282E-23
   51.5423508        -9.66093212E-23
   51.6691437        -1.14166285E-22
   51.7959366        -1.28837722E-22
   51.9227295        -1.38937755E-22
   52.0495224        -1.42664927E-22
   52.1763153        -1.38191745E-22
   52.3031082        -1.23776504E-22
   52.4299011        -9.78956504E-23
   52.5566940        -5.93923278E-23
   52.6834869        -7.63571287E-24
   52.8102798         5.73172387E-23
   52.9370728         1.34566582E-22
   53.0638657         2.22233098E-22
   53.1906586         3.17352633E-22
   53.3174477         4.15815399E-22
   53.4442406         5.12362962E-22
   53.5710335         6.00656364E-22
   53.6978264         6.73426397E-22
   53.8246193         7.22713063E-22
   53.9514122         7.40201289E-22
   54.0782051         7.17649358E-22
   54.2049980         6.47405296E-22
   54.3317909         5.22998018E-22
   54.4585838         3.39781678E-22
   54.5853767         9.56061741E-23
   54.7121696        -2.08522468E-22
   54.8389626        -5.67832480E-22
   54.9657555        -9.73276138E-22
   55.0925484        -1.41116922E-21
   55.2193375        -1.86303228E-21
   55.3461304        -2.30568336E-21
   55.4729233        -2.71162871E-21
   55.5997162        -3.04978564E-21
   55.7265091        -3.28656427E-21
   55.8533020        -3.38730865E-21
   55.9800949        -3.31809427E-21
   56.1068878        -3.04783280E-21
   56.2336807        -2.55063161E-21
   56.3604736        -1.80831355E-21
   56.4872665        -8.12983237E-22
   56.6140594         4.30499597E-22
   56.7408524         1.90230195E-21
   56.8676453         3.56582901E-21
   56.9944382         5.36655677E-21
   57.1212273         7.23165882E-21
   57.2480202         9.07060249E-21
   57.3748131         1.07768653E-20
   57.5016060         1.22308759E-20
   57.6283989         1.33042356E-20
   57.7551918         1.38652192E-20
   57.8819847         1.37854851E-20
   58.0087776         1.29478113E-20
   58.1355705         1.12546412E-20
   58.2623634         8.63707341E-21
   58.3891563         5.06388823E-21
   58.5159492         5.50103431E-22
   58.6427422        -4.83548945E-21
   58.7695351        -1.09644220E-20
   58.8963280        -1.76448772E-20
   59.0231171        -2.46208581E-20
   59.1499100        -3.15747183E-20
   59.2767029        -3.81335045E-20
   59.4034958        -4.38794176E-20
   59.5302887        -4.83645072E-20
   59.6570816        -5.11295459E-20
   59.7838745        -5.17266862E-20
   59.9106674        -4.97453948E-20
   60.0374603        -4.48407469E-20
   60.1642532        -3.67629082E-20
   60.2910461        -2.53864638E-20
   60.4178391        -1.07379514E-20
   60.5446320         6.98016683E-21
   60.6714249         2.73710187E-20
   60.7982178         4.98321454E-20
   60.9250069         7.35533847E-20
   61.0517998         9.75255377E-20
   61.1785927         1.20560825E-19
   61.3053856         1.41326212E-19
   61.4321785         1.58389552E-19
   61.5589714         1.70278321E-19
   61.6857643         1.75549801E-19
   61.8125572         1.72870563E-19
   61.9393501         1.61102756E-19
   62.0661430         1.39393440E-19
   62.1929359         1.07262946E-19
   62.3197289         6.46873527E-20
   62.4465218         1.21698003E-20
   62.5733147        -4.92046481E-20
   62.7001076        -1.17735925E-19
   62.8268967        -1.91102878E-19
   62.9536896        -2.66388062E-19
   63.0804825        -3.40137185E-19
   63.2072754        -4.08454781E-19
   63.3340683        -4.67136551E-19
   63.4608612        -5.11837236E-19
   63.5876541        -5.38269482E-19
   63.7144470        -5.42428908E-19
   63.8412399        -5.20837168E-19
   63.9680328        -4.70792741E-19
   64.0948257        -3.90617898E-19
   64.2216187        -2.79888580E-19
   64.3484116        -1.39633348E-19
   64.4752045         2.75139336E-20
   64.6019974         2.17220782E-19
   64.7287903         4.23436263E-19
   64.8555832         6.38454806E-19
   64.9823761         8.53071624E-19
   65.1091690         1.05683573E-18
   65.2359619         1.23839867E-18
   65.3627548         1.38595590E-18
   65.4895477         1.48777005E-18
   65.6163330         1.53275968E-18
   65.7431259         1.51113449E-18
   65.8699188         1.41504805E-18
   65.9967117         1.23923981E-18
   66.1235046         9.81631983E-19
   66.2502975         6.43844870E-19
   66.3770905         2.31594390E-19
   66.5038834        -2.45062674E-19
   66.6306763        -7.71667126E-19
   66.7574692        -1.32950734E-18
   66.8842621        -1.89599764E-18
   67.0110550        -2.44529664E-18
   67.1378479        -2.94916317E-18
   67.2646408        -3.37803646E-18
   67.3914337        -3.70231401E-18
   67.5182266        -3.89379061E-18
   67.6450195        -3.92719836E-18
   67.7718124        -3.78179531E-18
   67.8986053        -3.44291679E-18
   68.0253983        -2.90341594E-18
   68.1521912        -2.16490723E-18
   68.2789841        -1.23872623E-18
   68.4057770        -1.46522858E-19
   68.5325699         1.07957865E-18
   68.6593628         2.39731707E-18
   68.7861557         3.75516713E-18
   68.9129486         5.09376829E-18
   69.0397415         6.34790024E-18
   69.1665344         7.44897069E-18
   69.2933273         8.32795349E-18
   69.4201126         8.91867874E-18
   69.5469055         9.16135533E-18
   69.6736984         9.00617294E-18
   69.8004913         8.41681999E-18
   69.9272842         7.37373531E-18
   70.0540771         5.87689409E-18
   70.1808701         3.94795108E-18
   70.3076630         1.63155234E-18
   70.4344559        -1.00432589E-18
   70.5612488        -3.86914517E-18
   70.6880417        -6.85176407E-18
   70.8148346        -9.82360523E-18
   70.9416275        -1.26430214E-17
   71.0684204        -1.51607615E-17
   71.1952133        -1.72263969E-17
   71.3220062        -1.86954779E-17
   71.4487991        -1.94371612E-17
   71.5755920        -1.93419725E-17
   71.7023849        -1.83293413E-17
   71.8291779        -1.63545138E-17
   71.9559708        -1.34144194E-17
   72.0827637        -9.55214606E-18
   72.2095566        -4.85958270E-18
   72.3363495         5.22022518E-19
   72.4631424         6.40385942E-18
   72.5899353         1.25538720E-17
   72.7167282         1.87036240E-17
   72.8435211         2.45576424E-17
   72.9703140         2.98050248E-17
   73.0971069         3.41329959E-17
   73.2238922         3.72419244E-17
   73.3506851         3.88612066E-17
   73.4774780         3.87653562E-17
   73.6042709         3.67894963E-17
   73.7310638         3.28434808E-17
   73.8578568         2.69237611E-17
   73.9846497         1.91222535E-17
   74.1114426         9.63140981E-18
   74.2382355        -1.25507515E-18
   74.3650284        -1.31463947E-17
   74.4918213        -2.55639457E-17
   74.6186142        -3.79557515E-17
   74.7454071        -4.97159768E-17
   74.8722000        -6.02088886E-17
   74.9989929        -6.87966843E-17
   75.1257858        -7.48701488E-17
   75.2525787        -7.78809605E-17
   75.3793716        -7.73741767E-17
   75.5061646        -7.30194347E-17
   75.6329575        -6.46392613E-17
   75.7597504        -5.22326606E-17
   75.8865433        -3.59926170E-17
   76.0133362        -1.63159556E-17
   76.1401291         6.19558941E-18
   76.2669220         3.07440204E-17
   76.3937149         5.63539292E-17
   76.5205078         8.19016141E-17
   76.6473007         1.06154073E-16
   76.7740936         1.27816861E-16
   76.9008865         1.45589505E-16
   77.0276718         1.58226430E-16
   77.1544647         1.64601080E-16
   77.2812576         1.63770459E-16
   77.4080505         1.55037218E-16
   77.5348434         1.38005913E-16
   77.6616364         1.12630342E-16
   77.7884293         7.92492430E-17
   77.9152222         3.86069478E-17
   78.0420151        -8.14255419E-18
   78.1688080        -5.94504765E-17
   78.2956009        -1.13407627E-16
   78.4223938        -1.67798524E-16
   78.5491867        -2.20174714E-16
   78.6759796        -2.67945162E-16
   78.8027725        -3.08481511E-16
   78.9295654        -3.39234313E-16
   79.0563583        -3.57855935E-16
   79.1831512        -3.62325093E-16
   79.3099442        -3.51067602E-16
   79.4367371        -3.23067101E-16
   79.5635300        -2.77960214E-16
   79.6903229        -2.16110557E-16
   79.8171158        -1.38656104E-16
   79.9439087        -4.75258672E-17
   80.0707016         5.45774695E-17
   80.1974945         1.64230980E-16
   80.3242874         2.77381532E-16
   80.4510803         3.89471017E-16
   80.5778732         4.95594531E-16
   80.7046585         5.90686473E-16
   80.8314514         6.69728570E-16
   80.9582443         7.27972408E-16
   81.0850372         7.61167788E-16
   81.2118301         7.65786235E-16
   81.3386230         7.39230482E-16
   81.4654160         6.80019596E-16
   81.5922089         5.87937904E-16
   81.7190018         4.64141233E-16
   81.8457947         3.11209937E-16
   81.9725876         1.33144791E-16
   82.0993805        -6.47001352E-17
   82.2261734        -2.75747923E-16
   82.3529663        -4.92391317E-16
   82.4797592        -7.06243842E-16
   82.6065521        -9.08442307E-16
   82.7333450        -1.08999037E-15
   82.8601379        -1.24213125E-15
   82.9869308        -1.35673492E-15
   83.1137238        -1.42668438E-15
   83.2405167        -1.44624269E-15
   83.3673096        -1.41138474E-15
   83.4941025        -1.32007438E-15
   83.6208954        -1.17247497E-15
   83.7476883        -9.71076264E-16
   83.8744812        -7.20727735E-16
   84.0012741        -4.28572599E-16
   84.1280670        -1.03875958E-16
   84.2548599         2.42248591E-16
   84.3816528         5.97210267E-16
   84.5084381         9.47398834E-16
   84.6352310         1.27871397E-15
   84.7620239         1.57714644E-15
   84.8888168         1.82938873E-15
   85.0156097         2.02344969E-15
   85.1424026         2.14924488E-15
   85.2691956         2.19913385E-15
   85.3959885         2.16837872E-15
   85.5227814         2.05549782E-15
   85.6495743         1.86248908E-15
   85.7763672         1.59490936E-15
   85.9031601         1.26179396E-15
   86.0299530         8.75411357E-16
   86.1567459         4.50853244E-16
   86.2835388         5.47093493E-18
   86.4103317        -4.41828691E-16
   86.5371246        -8.71400126E-16
   86.6639175        -1.26376109E-15
   86.7907104        -1.60054086E-15
   86.9175034        -1.86543188E-15
   87.0442963        -2.04510197E-15
   87.1710892        -2.13002105E-15
   87.2978821        -2.11515414E-15
   87.4246750        -2.00047858E-15
   87.5514679        -1.79129194E-15
   87.6782608        -1.49827148E-15
   87.8050537        -1.13727546E-15
   87.9318466        -7.28863222E-16
   88.0586395        -2.97542584E-16
   88.1854324         1.29238646E-16
   88.3122177         5.22338537E-16
   88.4390106         8.52354008E-16
   88.5658035         1.09119379E-15
   88.6925964         1.21372092E-15
   88.8193893         1.19940289E-15
   88.9461823         1.03387444E-15
   89.0729752         7.10345652E-16
   89.1997681         2.30764836E-16
   89.3265610        -3.93346245E-16
   89.4533539        -1.14043828E-15
   89.5801468        -1.97894616E-15
   89.7069397        -2.86778526E-15
   89.8337326        -3.75736785E-15
   89.9605255        -4.59115193E-15
   90.0873184        -5.30769141E-15
   90.2141113        -5.84313905E-15
   90.3409042        -6.13415331E-15
   90.4676971        -6.12109206E-15
   90.5944901        -5.75139649E-15
   90.7212830        -4.98302495E-15
   90.8480759        -3.78777464E-15
   90.9748688        -2.15436287E-15
   91.1016617        -9.10666165E-17
   91.2284546         2.37221275E-15
   91.3552475         5.18262487E-15
   91.4820404         8.26391093E-15
   91.6088333         1.15169249E-14
   91.7356262         1.48212250E-14
   91.8624191         1.80377496E-14
   91.9892120         2.10126004E-14
   92.1159973         2.35818953E-14
   92.2427902         2.55775608E-14
   92.3695831         2.68339496E-14
   92.4963760         2.71950736E-14
   92.6231689         2.65222482E-14
   92.7499619         2.47018253E-14
   92.8767548         2.16527574E-14
   93.0035477         1.73336246E-14
   93.1303406         1.17488171E-14
   93.2571335         4.95353507E-15
   93.3839264        -2.94273031E-15
   93.5107193        -1.17745050E-14
   93.6375122        -2.13206765E-14
   93.7643051        -3.13070662E-14
   93.8910980        -4.14113324E-14
   94.0178909        -5.12702606E-14
   94.1446838        -6.04893400E-14
   94.2714767        -6.86545411E-14
   94.3982697        -7.53459727E-14
   94.5250626        -8.01531286E-14
   94.6518555        -8.26912188E-14
   94.7786484        -8.26182113E-14
   94.9054413        -7.96517461E-14
   95.0322342        -7.35855536E-14
   95.1590271        -6.43044781E-14
   95.2858200        -5.17975860E-14
   95.4126129        -3.61685847E-14
   95.5394058        -1.76429272E-14
   95.6661987         3.42879339E-15
   95.7929916         2.65718945E-14
   95.9197769         5.11931636E-14
   96.0465698         7.65912670E-14
   96.1733627         1.01972013E-13
   96.3001556         1.26468267E-13
   96.4269485         1.49164223E-13
   96.5537415         1.69123450E-13
   96.6805344         1.85420120E-13
   96.8073273         1.97172357E-13
   96.9341202         2.03576834E-13
   97.0609131         2.03943348E-13
   97.1877060         1.97728213E-13
   97.3144989         1.84565091E-13
   97.4412918         1.64292028E-13
   97.5680847         1.36973346E-13
   97.6948776         1.02915438E-13
   97.8216705         6.26750171E-14
   97.9484634         1.70595078E-14
   98.0752563        -3.28814463E-14