  -4.50000000         0.00000000    
  -4.37320757         0.00000000    
  -4.24641466         0.00000000    
  -4.11962223         0.00000000    
  -3.99282932         0.00000000    
  -3.86603665         0.00000000    
  -3.73924398         0.00000000    
  -3.61245155         0.00000000    
  -3.48565888         0.00000000    
  -3.35886621         0.00000000    
  -3.23207355         0.00000000    
  -3.10528088         0.00000000    
  -2.97848821         0.00000000    
  -2.85169554         0.00000000    
  -2.72490287         0.00000000    
  -2.59811020         0.00000000    
  -2.47131753         0.00000000    
  -2.34452486         0.00000000    
  -2.21773219         0.00000000    
  -2.09093952         0.00000000    
  -1.96414697         0.00000000    
  -1.83735430         0.00000000    
  -1.71056163         0.00000000    
  -1.58376896         0.00000000    
  -1.45697629         0.00000000    
  -1.33018374         0.00000000    
  -1.20339108         0.00000000    
  -1.07659841         0.00000000    
 -0.949805737         0.00000000    
 -0.823013067         0.00000000    
 -0.696220458         0.00000000    
 -0.569427788         0.00000000    
 -0.442635119         0.00000000    
 -0.315842479         0.00000000    
 -0.189049825         0.00000000    
  -6.22571707E-02     0.00000000    
   6.45354837E-02     0.00000000    
  0.191328138         0.00000000    
  0.318120778         0.00000000    
  0.444913447         0.00000000    
  0.571706116         0.00000000    
  0.698498726         0.00000000    
  0.825291395         0.00000000    
  0.952084064         0.00000000    
   1.07887673         0.00000000    
   1.20566940         0.00000000    
   1.33246195         0.00000000    
   1.45925462         0.00000000    
   1.58604729         0.00000000    
   1.71283996         0.00000000    
   1.83963263         0.00000000    
   1.96642530         0.00000000    
   2.09321785         0.00000000    
   2.22001052         0.00000000    
   2.34680319         0.00000000    
   2.47359586         0.00000000    
   2.60038853         0.00000000    
   2.72718120         0.00000000    
   2.85397387         0.00000000    
   2.98076653         0.00000000    
   3.10755920         0.00000000    
   3.23435187         0.00000000    
   3.36114454         0.00000000    
   3.48793697         0.00000000    
   3.61472964         0.00000000    
   3.74152231         0.00000000    
   3.86831498         0.00000000    
   3.99510765         0.00000000    
   4.12190056         0.00000000    
   4.24869299         0.00000000    
   4.37548542         0.00000000    
   4.50227833         0.00000000    
   4.62907076         0.00000000    
   4.75586367         0.00000000    
   4.88265610         0.00000000    
   5.00944901         0.00000000    
   5.13624144         0.00000000    
   5.26303434         0.00000000    
   5.38982677         0.00000000    
   5.51661968         0.00000000    
   5.64341211         0.00000000    
   5.77020502         0.00000000    
   5.89699745         0.00000000    
   6.02379036         0.00000000    
   6.15058279         0.00000000    
   6.27737522         0.00000000    
   6.40416813         0.00000000    
   6.53096056         0.00000000    
   6.65775347         0.00000000    
   6.78454590         0.00000000    
   6.91133881         0.00000000    
   7.03813124         0.00000000    
   7.16492414         0.00000000    
   7.29171658         0.00000000    
   7.41850948         0.00000000    
   7.54530191         0.00000000    
   7.67209482         0.00000000    
   7.79888725         0.00000000    
   7.92567968         0.00000000    
   8.05247211         0.00000000    
   8.17926502         0.00000000    
   8.30605793         0.00000000    
   8.43285084         0.00000000    
   8.55964279         0.00000000    
   8.68643570         0.00000000    
   8.81322861         0.00000000    
   8.94002151         0.00000000    
   9.06681347         0.00000000    
   9.19360638         0.00000000    
   9.32039928         0.00000000    
   9.44719219         0.00000000    
   9.57398415         0.00000000    
   9.70077705         0.00000000    
   9.82756996         0.00000000    
   9.95436192         0.00000000    
   10.0811548         0.00000000    
   10.2079477         0.00000000    
   10.3347406         0.00000000    
   10.4615326         0.00000000    
   10.5883255         0.00000000    
   10.7151184         0.00000000    
   10.8419113         0.00000000    
   10.9687033         0.00000000    
   11.0954962         0.00000000    
   11.2222891         0.00000000    
   11.3490820         0.00000000    
   11.4758739         0.00000000    
   11.6026669         0.00000000    
   11.7294598         0.00000000    
   11.8562517         0.00000000    
   11.9830446         0.00000000    
   12.1098375         0.00000000    
   12.2366304         0.00000000    
   12.3634224         0.00000000    
   12.4902153         0.00000000    
   12.6170082         0.00000000    
   12.7438011         0.00000000    
   12.8705931         0.00000000    
   12.9973860         0.00000000    
   13.1241789         0.00000000    
   13.2509708         0.00000000    
   13.3777637         0.00000000    
   13.5045567         0.00000000    
   13.6313496         0.00000000    
   13.7581415         0.00000000    
   13.8849344         0.00000000    
   14.0117273         0.00000000    
   14.1385202         0.00000000    
   14.2653122         0.00000000    
   14.3921051         0.00000000    
   14.5188980         0.00000000    
   14.6456909         0.00000000    
   14.7724829         0.00000000    
   14.8992758         0.00000000    
   15.0260687         0.00000000    
   15.1528606         0.00000000    
   15.2796535         0.00000000    
   15.4064465         0.00000000    
   15.5332394         0.00000000    
   15.6600313         0.00000000    
   15.7868242         0.00000000    
   15.9136171         0.00000000    
   16.0404091         0.00000000    
   16.1672020         0.00000000    
   16.2939949         0.00000000    
   16.4207878         0.00000000    
   16.5475807         0.00000000    
   16.6743736         0.00000000    
   16.8011646         0.00000000    
   16.9279575         0.00000000    
   17.0547504         0.00000000    
   17.1815434         0.00000000    
   17.3083363         0.00000000    
   17.4351292         0.00000000    
   17.5619221         0.00000000    
   17.6887150         0.00000000    
   17.8155060         0.00000000    
   17.9422989         0.00000000    
   18.0690918         0.00000000    
   18.1958847         0.00000000    
   18.3226776         0.00000000    
   18.4494705         0.00000000    
   18.5762634         0.00000000    
   18.7030544         0.00000000    
   18.8298473         0.00000000    
   18.9566402         0.00000000    
   19.0834332         0.00000000    
   19.2102261         0.00000000    
   19.3370190         0.00000000    
   19.4638119         0.00000000    
   19.5906048         0.00000000    
   19.7173958         0.00000000    
   19.8441887         0.00000000    
   19.9709816         0.00000000    
   20.0977745         0.00000000    
   20.2245674         0.00000000    
   20.3513603         0.00000000    
   20.4781532         0.00000000    
   20.6049442         0.00000000    
   20.7317371         0.00000000    
   20.8585300         0.00000000    
   20.9853230         0.00000000    
   21.1121159         0.00000000    
   21.2389088         0.00000000    
   21.3657017         0.00000000    
   21.4924946         0.00000000    
   21.6192856         0.00000000    
   21.7460785         0.00000000    
   21.8728714         0.00000000    
   21.9996643         0.00000000    
   22.1264572         0.00000000    
   22.2532501         0.00000000    
   22.3800430         0.00000000    
   22.5068340         0.00000000    
   22.6336269         0.00000000    
   22.7604198         0.00000000    
   22.8872128         0.00000000    
   23.0140057         0.00000000    
   23.1407986         0.00000000    
   23.2675915         0.00000000    
   23.3943844         0.00000000    
   23.5211754         0.00000000    
   23.6479683         0.00000000    
   23.7747612         0.00000000    
   23.9015541         0.00000000    
   24.0283470         0.00000000    
   24.1551399         0.00000000    
   24.2819328         0.00000000    
   24.4087238         0.00000000    
   24.5355167         0.00000000    
   24.6623096         0.00000000    
   24.7891026         0.00000000    
   24.9158955         0.00000000    
   25.0426884         0.00000000    
   25.1694813         0.00000000    
   25.2962742         0.00000000    
   25.4230652         0.00000000    
   25.5498581         0.00000000    
   25.6766510         0.00000000    
   25.8034439         0.00000000    
   25.9302368         0.00000000    
   26.0570297         0.00000000    
   26.1838226         0.00000000    
   26.3106136         0.00000000    
   26.4374065         0.00000000    
   26.5641994         0.00000000    
   26.6909924         0.00000000    
   26.8177853         0.00000000    
   26.9445782         0.00000000    
   27.0713711         0.00000000    
   27.1981640         0.00000000    
   27.3249550         0.00000000    
   27.4517479         0.00000000    
   27.5785408         0.00000000    
   27.7053337         0.00000000    
   27.8321266         0.00000000    
   27.9589195         0.00000000    
   28.0857124         0.00000000    
   28.2125034         0.00000000    
   28.3392963         0.00000000    
   28.4660892         0.00000000    
   28.5928822         0.00000000    
   28.7196751         0.00000000    
   28.8464680         0.00000000    
   28.9732609        -6.91075700E-34
   29.1000538        -2.40877600E-33
   29.2268448        -2.62201343E-33
   29.3536377        -2.88643997E-33
   29.4804306        -1.21001228E-33
   29.6072235         4.56111553E-34
   29.7340164        -8.86988456E-34
   29.8608093        -1.47717190E-32
   29.9876022        -4.60755641E-32
   30.1143932        -8.36404668E-32
   30.2411861        -1.12866936E-31
   30.3679790        -1.04496664E-31
   30.4947720        -6.15525047E-32
   30.6215649         2.92284319E-32
   30.7483578         1.42380590E-31
   30.8751507         1.94718852E-31
   31.0019417         2.27235894E-31
   31.1287346         2.01886758E-31
   31.2555275         1.80341064E-31
   31.3823204         8.59142255E-32
   31.5091133         7.90773931E-33
   31.6359062         8.09264736E-32
   31.7626991         7.33200495E-31
   31.8894920         1.86010151E-30
   32.0162849         3.62133811E-30
   32.1430779         6.07615249E-30
   32.2698708         8.85774302E-30
   32.3966637         1.17183877E-29
   32.5234528         1.65897348E-29
   32.6502457         2.30417220E-29
   32.7770386         3.15029417E-29
   32.9038315         3.94142827E-29
   33.0306244         4.43201770E-29
   33.1574173         4.65564946E-29
   33.2842102         4.91397535E-29
   33.4110031         4.91026522E-29
   33.5377960         4.70590660E-29
   33.6645889         4.10103490E-29
   33.7913818         2.45234814E-29
   33.9181747         1.23513694E-29
   34.0449677        -1.39076846E-30
   34.1717606        -1.62940083E-29
   34.2985535        -3.18072506E-29
   34.4253426        -5.07277910E-29
   34.5521355        -6.59987724E-29
   34.6789284        -6.93392738E-29
   34.8057213        -6.63557917E-29
   34.9325142        -5.44171867E-29
   35.0593071        -3.68842638E-29
   35.1861000        -2.16932428E-31
   35.3128929         5.49555624E-29
   35.4396858         1.27769695E-28
   35.5664787         2.32019549E-28
   35.6932716         3.58446546E-28
   35.8200645         4.98918411E-28
   35.9468575         6.45629255E-28
   36.0736504         7.84905815E-28
   36.2004433         8.98689083E-28
   36.3272324         9.65341859E-28
   36.4540253         9.76333141E-28
   36.5808182         9.12027881E-28
   36.7076111         7.47426015E-28
   36.8344040         4.68515441E-28
   36.9611969         6.94489194E-29
   37.0879898        -4.32855403E-28
   37.2147827        -1.02735006E-27
   37.3415756        -1.69529983E-27
   37.4683685        -2.40110270E-27
   37.5951614        -3.12606876E-27
   37.7219543        -3.84728889E-27
   37.8487473        -4.52146914E-27
   37.9755402        -5.09647132E-27
   38.1023293        -5.50332479E-27
   38.2291222        -5.65948034E-27
   38.3559151        -5.47283231E-27
   38.4827080        -4.85294864E-27
   38.6095009        -3.71159364E-27
   38.7362938        -1.97793699E-27
   38.8630867         3.84984055E-28
   38.9898796         3.37641789E-27
   39.1166725         6.94127801E-27
   39.2434654         1.09620242E-26
   39.3702583         1.52463317E-26
   39.4970512         1.95296800E-26
   39.6238441         2.34888912E-26
   39.7506371         2.67492841E-26
   39.8774300         2.89007728E-26
   40.0042191         2.95226171E-26
   40.1310120         2.82020917E-26
   40.2578049         2.45815776E-26
   40.3845978         1.83761465E-26
   40.5113907         9.41382385E-27
   40.6381836        -2.33418126E-27
   40.7649765        -1.67221918E-26
   40.8917694        -3.33944235E-26
   41.0185623        -5.17601838E-26
   41.1453552        -7.09841941E-26
   41.2721481        -8.99684153E-26
   41.3989410        -1.07367655E-25
   41.5257339        -1.21617465E-25
   41.6525269        -1.30989651E-25
   41.7793198        -1.33681454E-25
   41.9061089        -1.27922572E-25
   42.0329018        -1.12106120E-25
   42.1596947        -8.49540086E-26
   42.2864876        -4.56785562E-26
   42.4132805         5.85019632E-27
   42.5400734         6.89439779E-26
   42.6668663         1.41960980E-25
   42.7936592         2.22207227E-25
   42.9204521         3.05890504E-25
   43.0472450         3.88137216E-25
   43.1740379         4.63086200E-25
   43.3008308         5.24069241E-25
   43.4276237         5.63883445E-25
   43.5544167         5.75161494E-25
   43.6812096         5.50822669E-25
   43.8079987         4.84608840E-25
   43.9347916         3.71676573E-25
   44.0615845         2.09218805E-25
   44.1883774        -2.91382358E-27
   44.3151703        -2.61635481E-25
   44.4419632        -5.60139610E-25
   44.5687561        -8.87552828E-25
   44.6955490        -1.22878763E-24
   44.8223419        -1.56463885E-24
   44.9491348        -1.87217282E-24
   45.0759277        -2.12544174E-24
   45.2027206        -2.29654291E-24
   45.3295135        -2.35702567E-24
   45.4563065        -2.27961435E-24
   45.5830994        -2.04021439E-24
   45.7098885        -1.62010169E-24
   45.8366814        -1.00821127E-24
   45.9634743        -2.03388901E-25
   46.0902672         7.83547878E-25
   46.2170601         1.92809556E-24
   46.3438530         3.19088596E-24
   46.4706459         4.51721003E-24
   46.5974388         5.83741648E-24
   46.7242317         7.06831283E-24
   46.8510246         8.11569371E-24
   46.9778175         8.87802364E-24
   47.1046104         9.25128422E-24
   47.2314034         9.13488859E-24
   47.3581963         8.43850269E-24
   47.4849892         7.08952214E-24
   47.6117783         5.04084761E-24
   47.7385712         2.27857049E-24
   47.8653641        -1.17093957E-24
   47.9921570        -5.23505964E-24
   48.1189499        -9.79066392E-24
   48.2457428        -1.46620670E-23
   48.3725357        -1.96217838E-23
   48.4993286        -2.43944712E-23
   48.6261215        -2.86644222E-23
   48.7529144        -3.20867532E-23
   48.8797073        -3.43022786E-23
   49.0065002        -3.49558751E-23
   49.1332932        -3.37177642E-23
   49.2600861        -3.03070704E-23
   49.3868790        -2.45166026E-23
   49.5136681        -1.62377141E-23
   49.6404610        -5.48373227E-24
   49.7672539         7.58953611E-24
   49.8940468         2.26678550E-23
   50.0208397         3.92689310E-23
   50.1476326         5.67405498E-23
   50.2744255         7.42678527E-23
   50.4012184         9.08908811E-23
   50.5280113         1.05533067E-22
   50.6548042         1.17040680E-22
   50.7815971         1.24232996E-22
   50.9083900         1.25961990E-22
   51.0351830         1.21179852E-22
   51.1619759         1.09011956E-22
   51.2887688         8.88321119E-23
   51.4155579         6.03365754E-23
   51.5423508         2.36124576E-23
   51.6691437        -2.08036883E-23
   51.7959366        -7.18814538E-23
   51.9227295        -1.28071353E-22
   52.0495224        -1.87302552E-22
   52.1763153        -2.47006789E-22
   52.3031082        -3.04171891E-22
   52.4299011        -3.55425484E-22
   52.5566940        -3.97150142E-22
   52.6834869        -4.25627996E-22
   52.8102798        -4.37211907E-22
   52.9370728        -4.28519695E-22
   53.0638657        -3.96643302E-22
   53.1906586        -3.39367128E-22
   53.3174477        -2.55384264E-22
   53.4442406        -1.44501938E-22
   53.5710335        -7.82338445E-24
   53.6978264         1.52105194E-22
   53.8246193         3.31194126E-22
   53.9514122         5.23768654E-22
   54.0782051         7.22595277E-22
   54.2049980         9.18985746E-22
   54.3317909         1.10298406E-21
   54.4585838         1.26364188E-21
   54.5853767         1.38938070E-21
   54.7121696         1.46843885E-21
   54.8389626         1.48939453E-21
   54.9657555         1.44175481E-21
   55.0925484         1.31659254E-21
   55.2193375         1.10721003E-21
   55.3461304         8.09807598E-22
   55.4729233         4.24121965E-22
   55.5997162        -4.59906886E-23
   55.7265091        -5.92067297E-22
   55.8533020        -1.20068002E-21
   55.9800949        -1.85324909E-21
   56.1068878        -2.52605389E-21
   56.2336807        -3.19048631E-21
   56.3604736        -3.81356556E-21
   56.4872665        -4.35874382E-21
   56.6140594        -4.78701133E-21
   56.7408524        -5.05830678E-21
   56.8676453        -5.13321550E-21
   56.9944382        -4.97494087E-21
   57.1212273        -4.55149387E-21
   57.2480202        -3.83804171E-21
   57.3748131        -2.81933990E-21
   57.5016060        -1.49213840E-21
   57.6283989         1.32545533E-22
   57.7551918         2.02744109E-21
   57.8819847         4.14745128E-21
   58.0087776         6.42867566E-21
   58.1355705         8.78815343E-21
   58.2623634         1.11245138E-20
   58.3891563         1.33196532E-20
   58.5159492         1.52415508E-20
   58.6427422         1.67482974E-20
   58.7695351         1.76933868E-20
   58.8963280         1.79321916E-20
   59.0231171         1.73295695E-20
   59.1499100         1.57683873E-20
   59.2767029         1.31587189E-20
   59.4034958         9.44733883E-21
   59.5302887         4.62709729E-21
   59.6570816        -1.25435669E-21
   59.7838745        -8.08707747E-21
   59.9106674        -1.56931882E-20
   60.0374603        -2.38237500E-20
   60.1642532        -3.21587789E-20
   60.2910461        -4.03109993E-20
   60.4178391        -4.78338677E-20
   60.5446320        -5.42341098E-20
   60.6714249        -5.89891446E-20
   60.7982178        -6.15691080E-20
   60.9250069        -6.14633905E-20
   61.0517998        -5.82108711E-20
   61.1785927        -5.14329887E-20
   61.3053856        -4.08683865E-20
   61.4321785        -2.64074696E-20
   61.5589714        -8.12502519E-21
   61.6857643         1.36912447E-20
   61.8125572         3.85185312E-20
   61.9393501         6.55854835E-20
   62.0661430         9.38697484E-20
   62.1929359         1.22108505E-19
   62.3197289         1.48823932E-19
   62.4465218         1.72364639E-19
   62.5733147         1.90963537E-19
   62.7001076         2.02812175E-19
   62.8268967         2.06149823E-19
   62.9536896         1.99365585E-19
   63.0804825         1.81109618E-19
   63.2072754         1.50409417E-19
   63.3340683         1.06785295E-19
   63.4608612         5.03589269E-20
   63.5876541        -1.80522055E-20
   63.7144470        -9.68621259E-20
   63.8412399        -1.83672999E-19
   63.9680328        -2.75267949E-19
   64.0948257        -3.67647041E-19
   64.2216187        -4.56111112E-19
   64.3484116        -5.35396839E-19
   64.4752045        -5.99864504E-19
   64.6019974        -6.43736148E-19
   64.7287903        -6.61379497E-19
   64.8555832        -6.47630669E-19
   64.9823761        -5.98142521E-19
   65.1091690        -5.09745865E-19
   65.2359619        -3.80804925E-19
   65.3627548        -2.11546996E-19
   65.4895477        -4.34536757E-21
   65.6163330         2.36067938E-19
   65.7431259         5.02482340E-19
   65.8699188         7.85200214E-19
   65.9967117         1.07216121E-18
   66.1235046         1.34920882E-18
   66.2502975         1.60051073E-18
   66.3770905         1.80913106E-18
   66.5038834         1.95774667E-18
   66.6306763         2.02949549E-18
   66.7574692         2.00892454E-18
   66.8842621         1.88300863E-18
   67.0110550         1.64219123E-18
   67.1378479         1.28140017E-18
   67.2646408         8.00975789E-19
   67.3914337         2.07454106E-19
   67.5182266        -4.85859836E-19
   67.6450195        -1.25858984E-18
   67.7718124        -2.08330897E-18
   67.8986053        -2.92593077E-18
   68.0253983        -3.74650614E-18
   68.1521912        -4.50043287E-18
   68.2789841        -5.14008089E-18
   68.4057770        -5.61680493E-18
   68.5325699        -5.88329274E-18
   68.6593628        -5.89616615E-18
   68.7861557        -5.61875087E-18
   68.9129486        -5.02387566E-18
   69.0397415        -4.09657269E-18
   69.1665344        -2.83651937E-18
   69.2933273        -1.26005891E-18
   69.4201126         5.98358570E-19
   69.5469055         2.68546378E-18
   69.6736984         4.92932850E-18
   69.8004913         7.24049636E-18
   69.9272842         9.51415696E-18
   70.0540771         1.16333896E-17
   70.1808701         1.34734487E-17
   70.3076630         1.49070056E-17
   70.4344559         1.58101959E-17
   70.5612488         1.60692870E-17
   70.6880417         1.55876644E-17
   70.8148346         1.42928654E-17
   70.9416275         1.21432777E-17
   71.0684204         9.13411048E-18
   71.1952133         5.30228439E-18
   71.3220062         7.29812614E-19
   71.4487991        -4.45466828E-18
   71.5755920        -1.00765190E-17
   71.7023849        -1.59181082E-17
   71.8291779        -2.17243602E-17
   71.9559708        -2.72108259E-17
   72.0827637        -3.20742558E-17
   72.2095566        -3.60053225E-17
   72.3363495        -3.87032250E-17
   72.4631424        -3.98915460E-17
   72.5899353        -3.93348436E-17
   72.7167282        -3.68550487E-17
   72.8435211        -3.23470037E-17
   72.9703140        -2.57921135E-17
   73.0971069        -1.72692813E-17
   73.2238922        -6.96222950E-18
   73.3506851         4.83756688E-18
   73.4774780         1.77329871E-17
   73.6042709         3.12288673E-17
   73.7310638         4.47453856E-17
   73.8578568         5.76371245E-17
   73.9846497         6.92176068E-17
   74.1114426         7.87885431E-17
   74.2382355         8.56729555E-17
   74.3650284         8.92509286E-17
   74.4918213         8.89964018E-17
   74.6186142         8.45133939E-17
   74.7454071         7.55696061E-17
   74.8722000         6.21256448E-17
   74.9989929         4.43577192E-17
   75.1257858         2.26720892E-17
   75.2525787        -2.29042196E-18
   75.3793716        -2.96610689E-17
   75.5061646        -5.83619796E-17
   75.6329575        -8.71373432E-17
   75.7597504        -1.14596781E-16
   75.8865433        -1.39270110E-16
   76.0133362        -1.59671772E-16
   76.1401291        -1.74373101E-16
   76.2669220        -1.82079036E-16
   76.3937149        -1.81706553E-16
   76.5205078        -1.72460673E-16
   76.6473007        -1.53904047E-16
   76.7740936        -1.26016056E-16
   76.9008865        -8.92372371E-17
   77.0276718        -4.44954811E-17
   77.1544647         6.78950343E-18
   77.2812576         6.27256816E-17
   77.4080505         1.20993865E-16
   77.5348434         1.78918809E-16
   77.6616364         2.33565629E-16
   77.7884293         2.81858948E-16
   77.9152222         3.20721852E-16
   78.0420151         3.47229166E-16
   78.1688080         3.58769090E-16
   78.2956009         3.53206466E-16
   78.4223938         3.29039107E-16
   78.5491867         2.85539280E-16
   78.6759796         2.22871256E-16
   78.8027725         1.42177392E-16
   78.9295654         4.56245761E-17
   79.0563583        -6.35950550E-17
   79.1831512        -1.81313689E-16
   79.3099442        -3.02490659E-16
   79.4367371        -4.21368980E-16
   79.5635300        -5.31683005E-16
   79.6903229        -6.26913119E-16
   79.8171158        -7.00578833E-16
   79.9439087        -7.46561022E-16
   80.0707016        -7.59439735E-16
   80.1974945        -7.34833322E-16
   80.3242874        -6.69723011E-16
   80.4510803        -5.62744656E-16
   80.5778732        -4.14431966E-16
   80.7046585        -2.27393353E-16
   80.8314514        -6.40814587E-18
   80.9582443         2.41571150E-16
   81.0850372         5.07519219E-16
   81.2118301         7.80547108E-16
   81.3386230         1.04822074E-15
   81.4654160         1.29698511E-15
   81.5922089         1.51268342E-15
   81.7190018         1.68115859E-15
   81.8457947         1.78891453E-15
   81.9725876         1.82381419E-15
   82.0993805         1.77578488E-15
   82.2261734         1.63749966E-15
   82.3529663         1.40500097E-15
   82.4797592         1.07823186E-15
   82.6065521         6.61442258E-16
   82.7333450         1.63441492E-16
   82.8601379        -4.02331836E-16
   82.9869308        -1.01794111E-15
   83.1137238        -1.66129535E-15
   83.2405167        -2.30671445E-15
   83.3673096        -2.92570580E-15
   83.4941025        -3.48793938E-15
   83.6208954        -3.96239895E-15
   83.7476883        -4.31866906E-15
   83.8744812        -4.52832115E-15
   84.0012741        -4.56633641E-15
   84.1280670        -4.41251904E-15
   84.2548599        -4.05282777E-15
   84.3816528        -3.48056807E-15
   84.5084381        -2.69737515E-15
   84.6352310        -1.71393443E-15
   84.7620239        -5.50380674E-16
   84.8888168         7.63664047E-16
   85.0156097         2.18945036E-15
   85.1424026         3.67987196E-15
   85.2691956         5.18065256E-15
   85.3959885         6.63193043E-15
   85.5227814         7.97021242E-15
   85.6495743         9.13063655E-15
   85.7763672         1.00494869E-14
   85.9031601         1.06668663E-14
   86.0299530         1.09294321E-14
   86.1567459         1.07930963E-14
   86.2835388         1.02255630E-14
   86.4103317         9.20860678E-15
   86.5371246         7.73995753E-15
   86.6639175         5.83470684E-15
   86.7907104         3.52613506E-15
   86.9175034         8.65883295E-16
   87.0442963        -2.07658131E-15
   87.1710892        -5.21523903E-15
   87.2978821        -8.44952888E-15
   87.4246750        -1.16670725E-14
   87.5514679        -1.47470520E-14
   87.6782608        -1.75641582E-14
   87.8050537        -1.99929879E-14
   87.9318466        -2.19127627E-14
   88.0586395        -2.32121841E-14
   88.1854324        -2.37942837E-14
   88.3122177        -2.35810483E-14
   88.4390106        -2.25176340E-14
   88.5658035        -2.05760210E-14
   88.6925964        -1.77578746E-14
   88.8193893        -1.40964976E-14
   88.9461823        -9.65774346E-15
   89.0729752        -4.53976880E-15
   89.1997681         1.12840734E-15
   89.3265610         7.18957330E-15
   89.4533539         1.34621809E-14
   89.5801468         1.97453239E-14
   89.7069397         2.58247013E-14
   89.8337326         3.14794306E-14
   89.9605255         3.64894679E-14
   90.0873184         4.06434191E-14
   90.2141113         4.37464667E-14
   90.3409042         4.56281436E-14
   90.4676971         4.61496482E-14
   90.5944901         4.52103971E-14
   90.7212830         4.27535814E-14
   90.8480759         3.87704327E-14
   90.9748688         3.33029977E-14
   91.1016617         2.64452665E-14
   91.2284546         1.83425120E-14
   91.3552475         9.18877858E-15
   91.4820404        -7.77439185E-16
   91.6088333        -1.12792838E-14
   91.7356262        -2.20092499E-14
   91.8624191        -3.26382767E-14
   91.9892120        -4.28260061E-14
   92.1159973        -5.22318395E-14
   92.2427902        -6.05264333E-14
   92.3695831        -6.74032634E-14
   92.4963760        -7.25898291E-14
   92.6231689        -7.58580143E-14
   92.7499619        -7.70333233E-14
   92.8767548        -7.60025316E-14
   93.0035477        -7.27193709E-14
   93.1303406        -6.72080935E-14
   93.2571335        -5.95646172E-14
   93.3839264        -4.99551843E-14
   93.5107193        -3.86124306E-14
   93.6375122        -2.58290331E-14
   93.7643051        -1.19489989E-14
   93.8910980         2.64306763E-15
   94.0178909         1.75344375E-14
   94.1446838         3.22979897E-14
   94.2714767         4.65067472E-14
   94.3982697         5.97486470E-14
   94.5250626         7.16409760E-14
   94.6518555         8.18439419E-14
   94.7786484         9.00727111E-14
   94.9054413         9.61074821E-14
   95.0322342         9.98010878E-14
   95.1590271         1.01083807E-13
   95.2858200         9.99649650E-14
   95.4126129         9.65313983E-14
   95.5394058         9.09425597E-14
   95.6661987         8.34225606E-14
   95.7929916         7.42492547E-14
   95.9197769         6.37409979E-14
   96.0465698         5.22413838E-14
   96.1733627         4.01028122E-14
   96.3001556         2.76695035E-14
   96.4269485         1.52608927E-14
   96.5537415         3.15612650E-15
   96.6805344        -8.41947785E-15
   96.8073273        -1.93051667E-14
   96.9341202        -2.94120299E-14
   97.0609131        -3.87262921E-14
   97.1877060        -4.73081081E-14
   97.3144989        -5.52857659E-14
   97.4412918        -6.28452097E-14
   97.5680847        -7.02151350E-14
   97.6948776        -7.76481472E-14
   97.8216705        -8.53987698E-14
   97.9484634        -9.36990218E-14
   98.0752563        -1.02732926E-13