  -4.50000000         0.00000000    
  -4.37320757         0.00000000    
  -4.24641466         0.00000000    
  -4.11962223         0.00000000    
  -3.99282932         0.00000000    
  -3.86603665         0.00000000    
  -3.73924398         0.00000000    
  -3.61245155         0.00000000    
  -3.48565888         0.00000000    
  -3.35886621         0.00000000    
  -3.23207355         0.00000000    
  -3.10528088         0.00000000    
  -2.97848821         0.00000000    
  -2.85169554         0.00000000    
  -2.72490287         0.00000000    
  -2.59811020         0.00000000    
  -2.47131753         0.00000000    
  -2.34452486         0.00000000    
  -2.21773219         0.00000000    
  -2.09093952         0.00000000    
  -1.96414697         0.00000000    
  -1.83735430         0.00000000    
  -1.71056163         0.00000000    
  -1.58376896         0.00000000    
  -1.45697629         0.00000000    
  -1.33018374         0.00000000    
  -1.20339108         0.00000000    
  -1.07659841         0.00000000    
 -0.949805737         0.00000000    
 -0.823013067         0.00000000    
 -0.696220458         0.00000000    
 -0.569427788         0.00000000    
 -0.442635119         0.00000000    
 -0.315842479         0.00000000    
 -0.189049825         0.00000000    
  -6.22571707E-02     0.00000000    
   6.45354837E-02     0.00000000    
  0.191328138         0.00000000    
  0.318120778         0.00000000    
  0.444913447         0.00000000    
  0.571706116         0.00000000    
  0.698498726         0.00000000    
  0.825291395         0.00000000    
  0.952084064         0.00000000    
   1.07887673         0.00000000    
   1.20566940         0.00000000    
   1.33246195         0.00000000    
   1.45925462         0.00000000    
   1.58604729         0.00000000    
   1.71283996         0.00000000    
   1.83963263         0.00000000    
   1.96642530         0.00000000    
   2.09321785         0.00000000    
   2.22001052         0.00000000    
   2.34680319         0.00000000    
   2.47359586         0.00000000    
   2.60038853         0.00000000    
   2.72718120         0.00000000    
   2.85397387         0.00000000    
   2.98076653         0.00000000    
   3.10755920         0.00000000    
   3.23435187         0.00000000    
   3.36114454         0.00000000    
   3.48793697         0.00000000    
   3.61472964         0.00000000    
   3.74152231         0.00000000    
   3.86831498         0.00000000    
   3.99510765         0.00000000    
   4.12190056         0.00000000    
   4.24869299         0.00000000    
   4.37548542         0.00000000    
   4.50227833         0.00000000    
   4.62907076         0.00000000    
   4.75586367         0.00000000    
   4.88265610         0.00000000    
   5.00944901         0.00000000    
   5.13624144         0.00000000    
   5.26303434         0.00000000    
   5.38982677         0.00000000    
   5.51661968         0.00000000    
   5.64341211         0.00000000    
   5.77020502         0.00000000    
   5.89699745         0.00000000    
   6.02379036         0.00000000    
   6.15058279         0.00000000    
   6.27737522         0.00000000    
   6.40416813         0.00000000    
   6.53096056         0.00000000    
   6.65775347         0.00000000    
   6.78454590         0.00000000    
   6.91133881         0.00000000    
   7.03813124         0.00000000    
   7.16492414         0.00000000    
   7.29171658         0.00000000    
   7.41850948         0.00000000    
   7.54530191         0.00000000    
   7.67209482         0.00000000    
   7.79888725         0.00000000    
   7.92567968         0.00000000    
   8.05247211         0.00000000    
   8.17926502         0.00000000    
   8.30605793         0.00000000    
   8.43285084         0.00000000    
   8.55964279         0.00000000    
   8.68643570         0.00000000    
   8.81322861         0.00000000    
   8.94002151         0.00000000    
   9.06681347         0.00000000    
   9.19360638         0.00000000    
   9.32039928         0.00000000    
   9.44719219         0.00000000    
   9.57398415         0.00000000    
   9.70077705         0.00000000    
   9.82756996         0.00000000    
   9.95436192         0.00000000    
   10.0811548         0.00000000    
   10.2079477         0.00000000    
   10.3347406         0.00000000    
   10.4615326         0.00000000    
   10.5883255         0.00000000    
   10.7151184         0.00000000    
   10.8419113         0.00000000    
   10.9687033         0.00000000    
   11.0954962         0.00000000    
   11.2222891         0.00000000    
   11.3490820         0.00000000    
   11.4758739         0.00000000    
   11.6026669         0.00000000    
   11.7294598         0.00000000    
   11.8562517         0.00000000    
   11.9830446         0.00000000    
   12.1098375         0.00000000    
   12.2366304         0.00000000    
   12.3634224         0.00000000    
   12.4902153         0.00000000    
   12.6170082         0.00000000    
   12.7438011         0.00000000    
   12.8705931         0.00000000    
   12.9973860         0.00000000    
   13.1241789         0.00000000    
   13.2509708         0.00000000    
   13.3777637         0.00000000    
   13.5045567         0.00000000    
   13.6313496         0.00000000    
   13.7581415         0.00000000    
   13.8849344         0.00000000    
   14.0117273         0.00000000    
   14.1385202         0.00000000    
   14.2653122         0.00000000    
   14.3921051         0.00000000    
   14.5188980         0.00000000    
   14.6456909         0.00000000    
   14.7724829         0.00000000    
   14.8992758         0.00000000    
   15.0260687         0.00000000    
   15.1528606         0.00000000    
   15.2796535         0.00000000    
   15.4064465         0.00000000    
   15.5332394         0.00000000    
   15.6600313         0.00000000    
   15.7868242         0.00000000    
   15.9136171         0.00000000    
   16.0404091         0.00000000    
   16.1672020         0.00000000    
   16.2939949         0.00000000    
   16.4207878         0.00000000    
   16.5475807         0.00000000    
   16.6743736         0.00000000    
   16.8011646         0.00000000    
   16.9279575         0.00000000    
   17.0547504         0.00000000    
   17.1815434         0.00000000    
   17.3083363         0.00000000    
   17.4351292         0.00000000    
   17.5619221         0.00000000    
   17.6887150         0.00000000    
   17.8155060         0.00000000    
   17.9422989         0.00000000    
   18.0690918         0.00000000    
   18.1958847         0.00000000    
   18.3226776         0.00000000    
   18.4494705         0.00000000    
   18.5762634         0.00000000    
   18.7030544         0.00000000    
   18.8298473         0.00000000    
   18.9566402         0.00000000    
   19.0834332         0.00000000    
   19.2102261         0.00000000    
   19.3370190         0.00000000    
   19.4638119         0.00000000    
   19.5906048         0.00000000    
   19.7173958         0.00000000    
   19.8441887         0.00000000    
   19.9709816         0.00000000    
   20.0977745         0.00000000    
   20.2245674         0.00000000    
   20.3513603         0.00000000    
   20.4781532         0.00000000    
   20.6049442         0.00000000    
   20.7317371         0.00000000    
   20.8585300         0.00000000    
   20.9853230         0.00000000    
   21.1121159         0.00000000    
   21.2389088         0.00000000    
   21.3657017         0.00000000    
   21.4924946         0.00000000    
   21.6192856         0.00000000    
   21.7460785         0.00000000    
   21.8728714         0.00000000    
   21.9996643         0.00000000    
   22.1264572         0.00000000    
   22.2532501         0.00000000    
   22.3800430         0.00000000    
   22.5068340         0.00000000    
   22.6336269         0.00000000    
   22.7604198         0.00000000    
   22.8872128         0.00000000    
   23.0140057         0.00000000    
   23.1407986         0.00000000    
   23.2675915         0.00000000    
   23.3943844         0.00000000    
   23.5211754         0.00000000    
   23.6479683         0.00000000    
   23.7747612         0.00000000    
   23.9015541         0.00000000    
   24.0283470         0.00000000    
   24.1551399         0.00000000    
   24.2819328         0.00000000    
   24.4087238         0.00000000    
   24.5355167         0.00000000    
   24.6623096         0.00000000    
   24.7891026         0.00000000    
   24.9158955         0.00000000    
   25.0426884         0.00000000    
   25.1694813         0.00000000    
   25.2962742         0.00000000    
   25.4230652         0.00000000    
   25.5498581         0.00000000    
   25.6766510         0.00000000    
   25.8034439         0.00000000    
   25.9302368         0.00000000    
   26.0570297         0.00000000    
   26.1838226         0.00000000    
   26.3106136         0.00000000    
   26.4374065         0.00000000    
   26.5641994         0.00000000    
   26.6909924         0.00000000    
   26.8177853         0.00000000    
   26.9445782         0.00000000    
   27.0713711         0.00000000    
   27.1981640         0.00000000    
   27.3249550         0.00000000    
   27.4517479         0.00000000    
   27.5785408         0.00000000    
   27.7053337         0.00000000    
   27.8321266         0.00000000    
   27.9589195         0.00000000    
   28.0857124         0.00000000    
   28.2125034         0.00000000    
   28.3392963         0.00000000    
   28.4660892         0.00000000    
   28.5928822         0.00000000    
   28.7196751         0.00000000    
   28.8464680         0.00000000    
   28.9732609         8.38323725E-34
   29.1000538         2.92201557E-33
   29.2268448         3.18068788E-33
   29.3536377         3.50145604E-33
   29.4804306         2.89860579E-33
   29.6072235         5.59945154E-33
   29.7340164         9.77425316E-33
   29.8608093         1.89551432E-32
   29.9876022         3.16344925E-32
   30.1143932         4.15225718E-32
   30.2411861         4.07141079E-32
   30.3679790         1.49096603E-32
   30.4947720        -8.94216185E-34
   30.6215649        -2.86177127E-32
   30.7483578        -5.80211963E-32
   30.8751507        -1.08127354E-31
   31.0019417        -1.50633171E-31
   31.1287346        -1.24157500E-31
   31.2555275         9.30680901E-32
   31.3823204         6.21945550E-31
   31.5091133         1.23972665E-30
   31.6359062         1.45743432E-30
   31.7626991         6.85670087E-31
   31.8894920        -7.59570125E-31
   32.0162849        -2.94391125E-30
   32.1430779        -4.97332288E-30
   32.2698708        -6.36803395E-30
   32.3966637        -7.07874272E-30
   32.5234528        -1.00240553E-29
   32.6502457        -1.35760171E-29
   32.7770386        -1.63641949E-29
   32.9038315        -1.37692631E-29
   33.0306244        -7.47935044E-30
   33.1574173         1.63539156E-30
   33.2842102         1.30062051E-29
   33.4110031         2.76922636E-29
   33.5377960         4.34502615E-29
   33.6645889         5.70155310E-29
   33.7913818         6.85224990E-29
   33.9181747         7.69234656E-29
   34.0449677         9.54269037E-29
   34.1717606         1.31940983E-28
   34.2985535         1.85180138E-28
   34.4253426         2.53206054E-28
   34.5521355         3.34155129E-28
   34.6789284         4.31453759E-28
   34.8057213         5.30186414E-28
   34.9325142         6.17107147E-28
   35.0593071         6.66022445E-28
   35.1861000         6.66242916E-28
   35.3128929         6.12474419E-28
   35.4396858         4.96982804E-28
   35.5664787         3.15819000E-28
   35.6932716         8.42959676E-29
   35.8200645        -1.82402165E-28
   35.9468575        -4.99292571E-28
   36.0736504        -8.79368250E-28
   36.2004433        -1.32611659E-27
   36.3272324        -1.82830090E-27
   36.4540253        -2.35972429E-27
   36.5808182        -2.87452690E-27
   36.7076111        -3.32014722E-27
   36.8344040        -3.62863845E-27
   36.9611969        -3.74303406E-27
   37.0879898        -3.60000642E-27
   37.2147827        -3.15939678E-27
   37.3415756        -2.36739161E-27
   37.4683685        -1.19097591E-27
   37.5951614         3.97160049E-28
   37.7219543         2.41673566E-27
   37.8487473         4.84533275E-27
   37.9755402         7.63214221E-27
   38.1023293         1.06639342E-26
   38.2291222         1.37783817E-26
   38.3559151         1.67640939E-26
   38.4827080         1.93528411E-26
   38.6095009         2.12561052E-26
   38.7362938         2.21730127E-26
   38.8630867         2.17932331E-26
   38.9898796         1.98193260E-26
   39.1166725         1.59909070E-26
   39.2434654         1.00974905E-26
   39.3702583         2.00192194E-27
   39.4970512        -8.32982111E-27
   39.6238441        -2.07916094E-26
   39.7506371        -3.51005817E-26
   39.8774300        -5.07781660E-26
   40.0042191        -6.71293698E-26
   40.1310120        -8.32279501E-26
   40.2578049        -9.79470284E-26
   40.3845978        -1.09966729E-25
   40.5113907        -1.17827913E-25
   40.6381836        -1.20003173E-25
   40.7649765        -1.14962943E-25
   40.8917694        -1.01277217E-25
   41.0185623        -7.77270998E-26
   41.1453552        -4.34370850E-26
   41.2721481         1.99282770E-27
   41.3989410         5.83468458E-26
   41.5257339         1.24655973E-25
   41.6525269         1.99083939E-25
   41.7793198         2.78843989E-25
   41.9061089         3.60149935E-25
   42.0329018         4.38235406E-25
   42.1596947         5.07439609E-25
   42.2864876         5.61364809E-25
   42.4132805         5.93116362E-25
   42.5400734         5.95619319E-25
   42.6668663         5.62014634E-25
   42.7936592         4.86128877E-25
   42.9204521         3.63008422E-25
   43.0472450         1.89491132E-25
   43.1740379        -3.52019472E-26
   43.3008308        -3.08896754E-25
   43.4276237        -6.25951169E-25
   43.5544167        -9.76840444E-25
   43.6812096        -1.34790040E-24
   43.8079987        -1.72126373E-24
   43.9347916        -2.07504122E-24
   44.0615845        -2.38378619E-24
   44.1883774        -2.61927025E-24
   44.3151703        -2.75158391E-24
   44.4419632        -2.75056451E-24
   44.5687561        -2.58753122E-24
   44.6955490        -2.23728723E-24
   44.8223419        -1.68032619E-24
   44.9491348        -9.05156752E-25
   45.0759277         8.93692816E-26
   45.2027206         1.29185637E-24
   45.3295135         2.67645537E-24
   45.4563065         4.20140337E-24
   45.5830994         5.80820220E-24
   45.7098885         7.42160340E-24
   45.8366814         8.95056335E-24
   45.9634743         1.02902874E-23
   46.0902672         1.13254701E-23
   46.2170601         1.19347705E-23
   46.3438530         1.19964902E-23
   46.4706459         1.13953932E-23
   46.5974388         1.00304713E-23
   46.7242317         7.82342705E-24
   46.8510246         4.72751679E-24
   46.9778175         7.36354964E-25
   47.1046104        -4.10784407E-24
   47.2314034        -9.70714406E-24
   47.3581963        -1.59024924E-23
   47.4849892        -2.24706761E-23
   47.6117783        -2.91242271E-23
   47.7385712        -3.55148682E-23
   47.8653641        -4.12408940E-23
   47.9921570        -4.58588794E-23
   48.1189499        -4.88998467E-23
   48.2457428        -4.98898482E-23
   48.3725357        -4.83746767E-23
   48.4993286        -4.39481131E-23
   48.6261215        -3.62828874E-23
   48.7529144        -2.51632145E-23
   48.8797073        -1.05173650E-23
   49.0065002         7.55135997E-24
   49.1332932         2.87372372E-23
   49.2600861         5.25104220E-23
   49.3868790         7.81030798E-23
   49.5136681         1.04505541E-22
   49.6404610         1.30474527E-22
   49.7672539         1.54555131E-22
   49.8940468         1.75117932E-22
   50.0208397         1.90412153E-22
   50.1476326         1.98634797E-22
   50.2744255         1.98015409E-22
   50.4012184         1.86914508E-22
   50.5280113         1.63933399E-22
   50.6548042         1.28031570E-22
   50.7815971         7.86471603E-23
   50.9083900         1.58145391E-23
   51.0351830        -5.97273539E-23
   51.1619759        -1.46443230E-22
   51.2887688        -2.41933997E-22
   51.4155579        -3.42901528E-22
   51.5423508        -4.45153174E-22
   51.6691437        -5.43653199E-22
   51.7959366        -6.32627117E-22
   51.9227295        -7.05723145E-22
   52.0495224        -7.56232608E-22
   52.1763153        -7.77369385E-22
   52.3031082        -7.62604938E-22
   52.4299011        -7.06050503E-22
   52.5566940        -6.02876837E-22
   52.6834869        -4.49756941E-22
   52.8102798        -2.45311987E-22
   52.9370728         9.46092085E-24
   53.0638657         3.10804305E-22
   53.1906586         6.51887894E-22
   53.3174477         1.02259658E-21
   53.4442406         1.40944862E-21
   53.5710335         1.79567199E-21
   53.6978264         2.16146373E-21
   53.8246193         2.48445313E-21
   53.9514122         2.74038131E-21
   54.0782051         2.90400253E-21
   54.2049980         2.95020004E-21
   54.3317909         2.85529883E-21
   54.4585838         2.59854326E-21
   54.5853767         2.16369284E-21
   54.7121696         1.54067498E-21
   54.8389626         7.27217724E-22
   54.9657555        -2.69623141E-22
   55.0925484        -1.43214529E-21
   55.2193375        -2.73099172E-21
   55.3461304        -4.12456608E-21
   55.4729233        -5.55897522E-21
   55.5997162        -6.96860084E-21
   55.7265091        -8.27738232E-21
   55.8533020        -9.40087050E-21
   55.9800949        -1.02490836E-20
   56.1068878        -1.07301627E-20
   56.2336807        -1.07547794E-20
   56.3604736        -1.02411899E-20
   56.4872665        -9.12079636E-21
   56.6140594        -7.34400836E-21
   56.7408524        -4.88614861E-21
   56.8676453        -1.75310389E-21
   56.9944382         2.01362701E-21
   57.1212273         6.33285034E-21
   57.2480202         1.10809583E-20
   57.3748131         1.60909344E-20
   57.5016060         2.11534688E-20
   57.6283989         2.60204557E-20
   57.7551918         3.04111434E-20
   57.8819847         3.40210242E-20
   58.0087776         3.65335110E-20
   58.1355705         3.76342589E-20
   58.2623634         3.70277934E-20
   58.3891563         3.44560049E-20
   58.5159492         2.97178335E-20
   58.6427422         2.26893170E-20
   58.7695351         1.33429863E-20
   58.8963280         1.76549019E-21
   59.0231171        -1.18277748E-20
   59.1499100        -2.70823198E-20
   59.2767029        -4.34997417E-20
   59.4034958        -6.04396187E-20
   59.5302887        -7.71291508E-20
   59.6570816        -9.26812579E-20
   59.7838745        -1.06121676E-19
   59.9106674        -1.16424999E-19
   60.0374603        -1.22559280E-19
   60.1642532        -1.23538287E-19
   60.2910461        -1.18479793E-19
   60.4178391        -1.06667848E-19
   60.5446320        -8.76165602E-20
   60.6714249        -6.11319754E-20
   60.7982178        -2.73687375E-20
   60.9250069         1.31223908E-20
   61.0517998         5.93600576E-20
   61.1785927         1.09914778E-19
   61.3053856         1.62911903E-19
   61.4321785         2.16058206E-19
   61.5589714         2.66694377E-19
   61.6857643         3.11874672E-19
   61.8125572         3.48473795E-19
   61.9393501         3.73319587E-19
   62.0661430         3.83348738E-19
   62.1929359         3.75780527E-19
   62.3197289         3.48302724E-19
   62.4465218         2.99261615E-19
   62.5733147         2.27846615E-19
   62.7001076         1.34259491E-19
   62.8268967         1.98567275E-20
   62.9536896        -1.12746320E-19
   63.0804825        -2.59620536E-19
   63.2072754        -4.15527693E-19
   63.3340683        -5.73993242E-19
   63.4608612        -7.27453340E-19
   63.5876541        -8.67479818E-19
   63.7144470        -9.85082257E-19
   63.8412399        -1.07108267E-18
   63.9680328        -1.11655569E-18
   64.0948257        -1.11331800E-18
   64.2216187        -1.05445148E-18
   64.3484116        -9.34836618E-19
   64.4752045        -7.51670396E-19
   64.6019974        -5.04939687E-19
   64.7287903        -1.97819675E-19
   64.8555832         1.63033835E-19
   64.9823761         5.67327768E-19
   65.1091690         1.00113897E-18
   65.2359619         1.44710637E-18
   65.3627548         1.88482491E-18
   65.4895477         2.29144787E-18
   65.6163330         2.64249816E-18
   65.7431259         2.91286979E-18
   65.8699188         3.07800296E-18
   65.9967117         3.11518928E-18
   66.1235046         3.00496064E-18
   66.2502975         2.73250389E-18
   66.3770905         2.28903065E-18
   66.5038834         1.67302986E-18
   66.6306763         8.91318956E-19
   66.7574692        -4.01806925E-20
   66.8842621        -1.09602310E-18
   67.0110550        -2.24123884E-18
   67.1378479        -3.43181189E-18
   67.2646408        -4.61567113E-18
   67.3914337        -5.73421246E-18
   67.5182266        -6.72434435E-18
   67.6450195        -7.52101812E-18
   67.7718124        -8.06018355E-18
   67.8986053        -8.28206896E-18
   68.0253983        -8.13466951E-18
   68.1521912        -7.57728709E-18
   68.2789841        -6.58396890E-18
   68.4057770        -5.14662968E-18
   68.5325699        -3.27769615E-18
   68.6593628        -1.01206820E-18
   68.7861557         1.59179194E-18
   68.9129486         4.45178431E-18
   69.0397415         7.46325279E-18
   69.1665344         1.05013027E-17
   69.2933273         1.34243828E-17
   69.4201126         1.60791206E-17
   69.5469055         1.83063093E-17
   69.6736984         1.99478856E-17
   69.8004913         2.08546940E-17
   69.9272842         2.08947146E-17
   70.0540771         1.99614316E-17
   70.1808701         1.79819420E-17
   70.3076630         1.49243797E-17
   70.4344559         1.08041931E-17
   70.5612488         5.68887469E-18
   70.6880417        -2.99273868E-19
   70.8148346        -6.98271793E-18
   70.9416275        -1.41308604E-17
   71.0684204        -2.14650077E-17
   71.1952133        -2.86661890E-17
   71.3220062        -3.53857510E-17
   71.4487991        -4.12585646E-17
   71.5755920        -4.59184303E-17
   71.7023849        -4.90151993E-17
   71.8291779        -5.02329945E-17
   71.9559708        -4.93087260E-17
   72.0827637        -4.60500579E-17
   72.2095566        -4.03519415E-17
   72.3363495        -3.22107141E-17
   72.4631424        -2.17348936E-17
   72.5899353        -9.15176417E-18
   72.7167282         5.19095829E-18
   72.8435211         2.08289554E-17
   72.9703140         3.71910164E-17
   73.0971069         5.36147570E-17
   73.2238922         6.93681404E-17
   73.3506851         8.36764393E-17
   73.4774780         9.57537726E-17
   73.6042709         1.04838274E-16
   73.7310638         1.10229473E-16
   73.8578568         1.11326401E-16
   73.9846497         1.07664631E-16
   74.1114426         9.89504882E-17
   74.2382355         8.50903557E-17
   74.3650284         6.62134588E-17
   74.4918213         4.26863710E-17
   74.6186142         1.51177183E-17
   74.7454071        -1.56478799E-17
   74.8722000        -4.85474022E-17
   74.9989929        -8.23286709E-17
   75.1257858        -1.15590973E-16
   75.2525787        -1.46836033E-16
   75.3793716        -1.74527909E-16
   75.5061646        -1.97159743E-16
   75.6329575        -2.13324626E-16
   75.7597504        -2.21787888E-16
   75.8865433        -2.21557190E-16
   76.0133362        -2.11947205E-16
   76.1401291        -1.92635145E-16
   76.2669220        -1.63703993E-16
   76.3937149        -1.25670255E-16
   76.5205078        -7.94936848E-17
   76.6473007        -2.65672529E-17
   76.7740936         3.13139478E-17
   76.9008865         9.20047849E-17
   77.0276718         1.53082425E-16
   77.1544647         2.11937133E-16
   77.2812576         2.65878454E-16
   77.4080505         3.12252687E-16
   77.5348434         3.48567452E-16
   77.6616364         3.72617390E-16
   77.7884293         3.82604994E-16
   77.9152222         3.77251216E-16
   78.0420151         3.55888595E-16
   78.1688080         3.18532034E-16
   78.2956009         2.65922235E-16
   78.4223938         1.99536809E-16
   78.5491867         1.21567346E-16
   78.6759796         3.48604847E-17
   78.8027725        -5.71765106E-17
   78.9295654        -1.50703533E-16
   79.0563583        -2.41604925E-16
   79.1831512        -3.25670404E-16
   79.3099442        -3.98792667E-16
   79.4367371        -4.57172693E-16
   79.5635300        -4.97523330E-16
   79.6903229        -5.17261104E-16
   79.8171158        -5.14674901E-16
   79.9439087        -4.89062954E-16
   80.0707016        -4.40827630E-16
   80.1974945        -3.71521171E-16
   80.3242874        -2.83835817E-16
   80.4510803        -1.81535188E-16
   80.5778732        -6.93266424E-17
   80.7046585         4.73242006E-17
   80.8314514         1.62430757E-16
   80.9582443         2.69766574E-16
   81.0850372         3.63179273E-16
   81.2118301         4.36923417E-16
   81.3386230         4.85996800E-16
   81.4654160         5.06462651E-16
   81.5922089         4.95740961E-16
   81.7190018         4.52850442E-16
   81.8457947         3.78585796E-16
   81.9725876         2.75614251E-16
   82.0993805         1.48482454E-16
   82.2261734         3.52317771E-18
   82.3529663        -1.51340396E-16
   82.4797592        -3.06890651E-16
   82.6065521        -4.53006085E-16
   82.7333450        -5.79134267E-16
   82.8601379        -6.74830302E-16
   82.9869308        -7.30337483E-16
   83.1137238        -7.37187544E-16
   83.2405167        -6.88788029E-16
   83.3673096        -5.80968199E-16
   83.4941025        -4.12453138E-16
   83.6208954        -1.85232791E-16
   83.7476883         9.51995020E-17
   83.8744812         4.19763456E-16
   84.0012741         7.75881015E-16
   84.1280670         1.14774987E-15
   84.2548599         1.51680424E-15
   84.3816528         1.86235906E-15
   84.5084381         2.16242027E-15
   84.6352310         2.39464049E-15
   84.7620239         2.53738503E-15
   84.8888168         2.57086972E-15
   85.0156097         2.47832057E-15
   85.1424026         2.24710429E-15
   85.2691956         1.86977610E-15
   85.3959885         1.34498329E-15
   85.5227814         6.78175712E-16
   85.6495743        -1.17930558E-16
   85.7763672        -1.02317588E-15
   85.9031601        -2.01010448E-15
   86.0299530        -3.04445071E-15
   86.1567459        -4.08597979E-15
   86.2835388        -5.08967275E-15
   86.4103317        -6.00722627E-15
   86.5371246        -6.78884668E-15
   86.6639175        -7.38525740E-15
   86.7907104        -7.74987882E-15
   86.9175034        -7.84108225E-15
   87.0442963        -7.62442477E-15
   87.1710892        -7.07478933E-15
   87.2978821        -6.17830617E-15
   87.4246750        -4.93397539E-15
   87.5514679        -3.35488786E-15
   87.6782608        -1.46897028E-15
   87.8050537         6.80824384E-16
   87.9318466         3.03691974E-15
   88.0586395         5.52814571E-15
   88.1854324         8.07140829E-15
   88.3122177         1.05739680E-14
   88.4390106         1.29362836E-14
   88.5658035         1.50553567E-14
   88.6925964         1.68284660E-14
   88.8193893         1.81571812E-14
   88.9461823         1.89515135E-14
   89.0729752         1.91340474E-14
   89.1997681         1.86439033E-14
   89.3265610         1.74403322E-14
   89.4533539         1.55058326E-14
   89.5801468         1.28485691E-14
   89.7069397         9.50401799E-15
   89.8337326         5.53566524E-15
   89.9605255         1.03472359E-15
   90.0873184        -3.88122228E-15
   90.2141113        -9.07064883E-15
   90.3409042        -1.43715792E-14
   90.4676971        -1.96060700E-14
   90.5944901        -2.45855701E-14
   90.7212830        -2.91170456E-14
   90.8480759        -3.30096363E-14
   90.9748688        -3.60816926E-14
   91.1016617        -3.81679145E-14
   91.2284546        -3.91263390E-14
   91.3552475        -3.88449445E-14
   91.4820404        -3.72475691E-14
   91.6088333        -3.42989017E-14
   91.7356262        -3.00083343E-14
   91.8624191        -2.44324045E-14
   91.9892120        -1.76757514E-14
   92.1159973        -9.89037259E-15
   92.2427902        -1.27317226E-15
   92.3695831         7.93823862E-15
   92.4963760         1.74714318E-14
   92.6231689         2.70266275E-14
   92.7499619         3.62855667E-14
   92.8767548         4.49215385E-14
   93.0035477         5.26102768E-14
   93.1303406         5.90414287E-14
   93.2571335         6.39301234E-14
   93.3839264         6.70283599E-14
   93.5107193         6.81356623E-14
   93.6375122         6.71087196E-14
   93.7643051         6.38694962E-14
   93.8910980         5.84115005E-14
   94.0178909         5.08038707E-14
   94.1446838         4.11930215E-14
   94.2714767         2.98015837E-14
   94.3982697         1.69246432E-14
   94.5250626         2.92311938E-15
   94.6518555        -1.17855029E-14
   94.7786484        -2.67390378E-14
   94.9054413        -4.14446513E-14
   95.0322342        -5.53948536E-14
   95.1590271        -6.80848336E-14
   95.2858200        -7.90307015E-14
   95.4126129        -8.77879380E-14
   95.5394058        -9.39694015E-14
   95.6661987        -9.72622726E-14
   95.7929916        -9.74431581E-14
   95.9197769        -9.43907089E-14
   96.0465698        -8.80952144E-14
   96.1733627        -7.86644784E-14
   96.3001556        -6.63257223E-14
   96.4269485        -5.14230179E-14
   96.5537415        -3.44101985E-14
   96.6805344        -1.58392146E-14
   96.8073273         3.65593735E-15
   96.9341202         2.33793426E-14
   97.0609131         4.25968566E-14
   97.1877060         6.05626186E-14
   97.3144989         7.65475465E-14
   97.4412918         8.98688743E-14
   97.5680847         9.99196385E-14
   97.6948776         1.06196864E-13
   97.8216705         1.08327369E-13
   97.9484634         1.06089982E-13
   98.0752563         9.94329402E-14