  -4.50000000         0.00000000    
  -4.37320757         0.00000000    
  -4.24641466         0.00000000    
  -4.11962223         0.00000000    
  -3.99282932        -2.82382985E-23
  -3.86603665        -9.87300254E-23
  -3.73924398         6.27488338E-22
  -3.61245155         6.42234296E-21
  -3.48565888         2.75883249E-20
  -3.35886621         7.59641186E-20
  -3.23207355         1.45724305E-19
  -3.10528088         1.86307621E-19
  -2.97848821         9.96943213E-20
  -2.85169554        -1.98273952E-19
  -2.72490287        -6.58240605E-19
  -2.59811020        -1.01855846E-18
  -2.47131753        -9.33681047E-19
  -2.34452486        -4.09080724E-19
  -2.21773219        -4.03506122E-19
  -2.09093952        -3.16982187E-18
  -1.96414697        -1.18138125E-17
  -1.83735430        -2.88569070E-17
  -1.71056163        -5.42401485E-17
  -1.58376896        -8.38415115E-17
  -1.45697629        -1.09720228E-16
  -1.33018374        -1.22705507E-16
  -1.20339108        -1.16820944E-16
  -1.07659841        -9.39353715E-17
 -0.949805737        -6.65050433E-17
 -0.823013067        -5.64855303E-17
 -0.696220458        -8.92673068E-17
 -0.569427788        -1.82595488E-16
 -0.442635119        -3.32028286E-16
 -0.315842479        -4.96915849E-16
 -0.189049825        -5.94055493E-16
  -6.22571707E-02    -5.08681137E-16
   6.45354837E-02    -1.31437914E-16
  0.191328138         5.77350151E-16
  0.318120778         1.50909476E-15
  0.444913447         2.34419057E-15
  0.571706116         2.54696751E-15
  0.698498726         1.45651847E-15
  0.825291395        -1.51326449E-15
  0.952084064        -6.59386647E-15
   1.07887673        -1.33785102E-14
   1.20566940        -2.06403091E-14
   1.33246195        -2.63520657E-14
   1.45925462        -2.79595191E-14
   1.58604729        -2.28800760E-14
   1.71283996        -9.11459713E-15
   1.83963263         1.41977105E-14
   1.96642530         4.64561454E-14
   2.09321785         8.56289527E-14
   2.22001052         1.28665511E-13
   2.34680319         1.72218603E-13
   2.47359586         2.13536938E-13
   2.60038853         2.51372409E-13
   2.72718120         2.86785895E-13
   2.85397387         3.23798497E-13
   2.98076653         3.69885844E-13
   3.10755920         4.36315860E-13
   3.23435187         5.38276617E-13
   3.36114454         6.94656463E-13
   3.48793697         9.27266293E-13
   3.61472964         1.25929388E-12
   3.74152231         1.71288179E-12
   3.86831498         2.30592173E-12
   3.99510765         3.04842891E-12
   4.12190056         3.93911683E-12
   4.24869299         4.96298749E-12
   4.37548542         6.09081275E-12
   4.50227833         7.28127107E-12
   4.62907076         8.48624296E-12
   4.75586367         9.65927512E-12
   4.88265610         1.07666584E-11
   5.00944901         1.17997860E-11
   5.13624144         1.27867951E-11
   5.26303434         1.38009031E-11
   5.38982677         1.49626370E-11
   5.51661968         1.64335143E-11
   5.64341211         1.83998077E-11
   5.77020502         2.10467251E-11
   5.89699745         2.45256575E-11
   6.02379036         2.89193253E-11
   6.15058279         3.42114913E-11
   6.27737522         4.02683165E-11
   6.40416813         4.68371765E-11
   6.53096056         5.35655721E-11
   6.65775347         6.00377456E-11
   6.78454590         6.58209945E-11
   6.91133881         7.05083006E-11
   7.03813124         7.37406664E-11
   7.16492414         7.51930393E-11
   7.29171658         7.45122020E-11
   7.41850948         7.12043549E-11
   7.54530191         6.44825027E-11
   7.67209482         5.30974500E-11
   7.79888725         3.51874918E-11
   7.92567968         8.18857135E-12
   8.05247211        -3.11557655E-11
   8.17926502        -8.66564945E-11
   8.30605793        -1.62406075E-10
   8.43285084        -2.62391303E-10
   8.55964279        -3.90041471E-10
   8.68643570        -5.47787538E-10
   8.81322861        -7.36721073E-10
   8.94002151        -9.56436264E-10
   9.06681347        -1.20511534E-09
   9.19360638        -1.47986945E-09
   9.32039928        -1.77728698E-09
   9.44719219        -2.09407336E-09
   9.57398415        -2.42760678E-09
   9.70077705        -2.77619439E-09
   9.82756996        -3.13880988E-09
   9.95436192        -3.51412766E-09
   10.0811548        -3.89875110E-09
   10.2079477        -4.28462910E-09
   10.3347406        -4.65582639E-09
   10.4615326        -4.98489605E-09
   10.5883255        -5.22927301E-09
   10.7151184        -5.32812017E-09
   10.8419113        -5.20013232E-09
   10.9687033        -4.74272799E-09
   11.0954962        -3.83296461E-09
   11.2222891        -2.33039121E-09
   11.3490820        -8.18963231E-11
   11.4758739         3.07154613E-09
   11.6026669         7.28646610E-09
   11.7294598         1.27071651E-08
   11.8562517         1.94550953E-08
   11.9830446         2.76178724E-08
   12.1098375         3.72385252E-08
   12.2366304         4.83057860E-08
   12.3634224         6.07463093E-08
   12.4902153         7.44202922E-08
   12.6170082         8.91217056E-08
   12.7438011         1.04585411E-07
   12.8705931         1.20503458E-07
   12.9973860         1.36552543E-07
   13.1241789         1.52436158E-07
   13.2509708         1.67943114E-07
   13.3777637         1.83025037E-07
   13.5045567         1.97894693E-07
   13.6313496         2.13145242E-07
   13.7581415         2.29890802E-07
   13.8849344         2.49926757E-07
   14.0117273         2.75906672E-07
   14.1385202         3.11532318E-07
   14.2653122         3.61751631E-07
   14.3921051         4.32957592E-07
   14.5188980         5.33183709E-07
   14.6456909         6.72282454E-07
   14.7724829         8.62085415E-07
   14.8992758         1.11653321E-06
   15.0260687         1.45176489E-06
   15.1528606         1.88616241E-06
   15.2796535         2.44034163E-06
   15.4064465         3.13707983E-06
   15.5332394         4.00118097E-06
   15.6600313         5.05926300E-06
   15.7868242         6.33947548E-06
   15.9136171         7.87114368E-06
   16.0404091         9.68433324E-06
   16.1672020         1.18093494E-05
   16.2939949         1.42761655E-05
   16.4207878         1.71137999E-05
   16.5475807         2.03496529E-05
   16.6743736         2.40088102E-05
   16.8011646         2.81133234E-05
   16.9279575         3.26815170E-05
   17.0547504         3.77273063E-05
   17.1815434         4.32596025E-05
   17.3083363         4.92817308E-05
   17.4351292         5.57910644E-05
   17.5619221         6.27786503E-05
   17.6887150         7.02291145E-05
   17.8155060         7.81206472E-05
   17.9422989         8.64251924E-05
   18.0690918         9.51089096E-05
   18.1958847         1.04132669E-04
   18.3226776         1.13452857E-04
   18.4494705         1.23022342E-04
   18.5762634         1.32791480E-04
   18.7030544         1.42709396E-04
   18.8298473         1.52725188E-04
   18.9566402         1.62789278E-04
   19.0834332         1.72854649E-04
   19.2102261         1.82878153E-04
   19.3370190         1.92821579E-04
   19.4638119         2.02652547E-04
   19.5906048         2.12345418E-04
   19.7173958         2.21881739E-04
   19.8441887         2.31250466E-04
   19.9709816         2.40448106E-04
   20.0977745         2.49478297E-04
   20.2245674         2.58351385E-04
   20.3513603         2.67083436E-04
   20.4781532         2.75695493E-04
   20.6049442         2.84212147E-04
   20.7317371         2.92660261E-04
   20.8585300         3.01067543E-04
   20.9853230         3.09461233E-04
   21.1121159         3.17866594E-04
   21.2389088         3.26305861E-04
   21.3657017         3.34797078E-04
   21.4924946         3.43353313E-04
   21.6192856         3.51982133E-04
   21.7460785         3.60685372E-04
   21.8728714         3.69459041E-04
   21.9996643         3.78293975E-04
   22.1264572         3.87176115E-04
   22.2532501         3.96087620E-04
   22.3800430         4.05007828E-04
   22.5068340         4.13914444E-04
   22.6336269         4.22784680E-04
   22.7604198         4.31596651E-04
   22.8872128         4.40330448E-04
   23.0140057         4.48969135E-04
   23.1407986         4.57499729E-04
   23.2675915         4.65913763E-04
   23.3943844         4.74207802E-04
   23.5211754         4.82383737E-04
   23.6479683         4.90448729E-04
   23.7747612         4.98415029E-04
   23.9015541         5.06299722E-04
   24.0283470         5.14124229E-04
   24.1551399         5.21913753E-04
   24.2819328         5.29696525E-04
   24.4087238         5.37503511E-04
   24.5355167         5.45367657E-04
   24.6623096         5.53322956E-04
   24.7891026         5.61404508E-04
   24.9158955         5.69647411E-04
   25.0426884         5.78086823E-04
   25.1694813         5.86757145E-04
   25.2962742         5.95691730E-04
   25.4230652         6.04922359E-04
   25.5498581         6.14478660E-04
   25.6766510         6.24387700E-04
   25.8034439         6.34672877E-04
   25.9302368         6.45353459E-04
   26.0570297         6.56443241E-04
   26.1838226         6.67949556E-04
   26.3106136         6.79871766E-04
   26.4374065         6.92200032E-04
   26.5641994         7.04913633E-04
   26.6909924         7.17979390E-04
   26.8177853         7.31350039E-04
   26.9445782         7.44962657E-04
   27.0713711         7.58737384E-04
   27.1981640         7.72576197E-04
   27.3249550         7.86361750E-04
   27.4517479         7.99957372E-04
   27.5785408         8.13206541E-04
   27.7053337         8.25933239E-04
   27.8321266         8.37943051E-04
   27.9589195         8.49024276E-04
   28.0857124         8.58949788E-04
   28.2125034         8.67479539E-04
   28.3392963         8.74363293E-04
   28.4660892         8.79343948E-04
   28.5928822         8.82160908E-04
   28.7196751         8.82553810E-04
   28.8464680         8.80267180E-04
   28.9732609         8.75053462E-04
   29.1000538         8.66677728E-04
   29.2268448         8.54921236E-04
   29.3536377         8.39585089E-04
   29.4804306         8.20493791E-04
   29.6072235         7.97498331E-04
   29.7340164         7.70478393E-04
   29.8608093         7.39344861E-04
   29.9876022         7.04041799E-04
   30.1143932         6.64547319E-04
   30.2411861         6.20874867E-04
   30.3679790         5.73073165E-04
   30.4947720         5.21227019E-04
   30.6215649         4.65456193E-04
   30.7483578         4.05915256E-04
   30.8751507         3.42792482E-04
   31.0019417         2.76308594E-04
   31.1287346         2.06715311E-04
   31.2555275         1.34293601E-04
   31.3823204         5.93519690E-05
   31.5091133        -1.77757593E-05
   31.6359062        -9.67324522E-05
   31.7626991        -1.77140028E-04
   31.8894920        -2.58601882E-04
   32.0162849        -3.40705272E-04
   32.1430779        -4.23024205E-04
   32.2698708        -5.05122181E-04
   32.3966637        -5.86554757E-04
   32.5234528        -6.66873239E-04
   32.6502457        -7.45627098E-04
   32.7770386        -8.22367903E-04
   32.9038315        -8.96652578E-04
   33.0306244        -9.68046777E-04
   33.1574173        -1.03612884E-03
   33.2842102        -1.10049360E-03
   33.4110031        -1.16075575E-03
   33.5377960        -1.21655408E-03
   33.6645889        -1.26755494E-03
   33.7913818        -1.31345552E-03
   33.9181747        -1.35398773E-03
   34.0449677        -1.38892129E-03
   34.1717606        -1.41806586E-03
   34.2985535        -1.44127395E-03
   34.4253426        -1.45844277E-03
   34.5521355        -1.46951573E-03
   34.6789284        -1.47448271E-03
   34.8057213        -1.47338118E-03
   34.9325142        -1.46629510E-03
   35.0593071        -1.45335449E-03
   35.1861000        -1.43473328E-03
   35.3128929        -1.41064753E-03
   35.4396858        -1.38135266E-03
   35.5664787        -1.34713936E-03
   35.6932716        -1.30833092E-03
   35.8200645        -1.26527797E-03
   35.9468575        -1.21835491E-03
   36.0736504        -1.16795418E-03
   36.2004433        -1.11448241E-03
   36.3272324        -1.05835462E-03
   36.4540253        -9.99989919E-04
   36.5808182        -9.39806399E-04
   36.7076111        -8.78216873E-04
   36.8344040        -8.15624779E-04
   36.9611969        -7.52419990E-04
   37.0879898        -6.88975793E-04
   37.2147827        -6.25645684E-04
   37.3415756        -5.62761503E-04
   37.4683685        -5.00631228E-04
   37.5951614        -4.39537835E-04
   37.7219543        -3.79738834E-04
   37.8487473        -3.21466068E-04
   37.9755402        -2.64925882E-04
   38.1023293        -2.10300088E-04
   38.2291222        -1.57747083E-04
   38.3559151        -1.07403168E-04
   38.4827080        -5.93842160E-05
   38.6095009        -1.37873503E-05
   38.7362938         2.93073717E-05
   38.8630867         6.98353469E-05
   38.9898796         1.07746026E-04
   39.1166725         1.43001627E-04
   39.2434654         1.75576206E-04
   39.3702583         2.05454940E-04
   39.4970512         2.32633945E-04
   39.6238441         2.57120002E-04
   39.7506371         2.78930936E-04
   39.8774300         2.98096100E-04
   40.0042191         3.14656849E-04
   40.1310120         3.28667375E-04
   40.2578049         3.40195431E-04
   40.3845978         3.49322858E-04
   40.5113907         3.56146164E-04
   40.6381836         3.60776583E-04
   40.7649765         3.63340048E-04
   40.8917694         3.63976258E-04
   41.0185623         3.62837949E-04
   41.1453552         3.60089150E-04
   41.2721481         3.55902943E-04
   41.3989410         3.50459042E-04
   41.5257339         3.43940745E-04
   41.6525269         3.36531491E-04
   41.7793198         3.28411232E-04
   41.9061089         3.19752580E-04
   42.0329018         3.10717121E-04
   42.1596947         3.01451713E-04
   42.2864876         2.92085140E-04
   42.4132805         2.82725174E-04
   42.5400734         2.73456331E-04
   42.6668663         2.64338276E-04
   42.7936592         2.55404972E-04
   42.9204521         2.46664800E-04
   43.0472450         2.38101653E-04
   43.1740379         2.29676705E-04
   43.3008308         2.21331356E-04
   43.4276237         2.12990766E-04
   43.5544167         2.04568147E-04
   43.6812096         1.95969609E-04
   43.8079987         1.87099402E-04
   43.9347916         1.77865324E-04
   44.0615845         1.68184080E-04
   44.1883774         1.57986433E-04
   44.3151703         1.47222047E-04
   44.4419632         1.35863462E-04
   44.5687561         1.23909587E-04
   44.6955490         1.11387963E-04
   44.8223419         9.83562495E-05
   44.9491348         8.49024655E-05
   45.0759277         7.11441535E-05
   45.2027206         5.72264653E-05
   45.3295135         4.33192072E-05
   45.4563065         2.96129219E-05
   45.5830994         1.63142486E-05
   45.7098885         3.64056086E-06
   45.8366814        -8.18583521E-06
   45.9634743        -1.89436578E-05
   46.0902672        -2.84188209E-05
   46.2170601        -3.64103471E-05
   46.3438530        -4.27359955E-05
   46.4706459        -4.72374231E-05
   46.5974388        -4.97846959E-05
   46.7242317        -5.02800285E-05
   46.8510246        -4.86607059E-05
   46.9778175        -4.49011241E-05
   47.1046104        -3.90139030E-05
   47.2314034        -3.10500982E-05
   47.3581963        -2.10985527E-05
   47.4849892        -9.28440022E-06
   47.6117783         4.23315032E-06
   47.7385712         1.92637108E-05
   47.8653641         3.55891716E-05
   47.9921570         5.29676436E-05
   48.1189499         7.11377870E-05
   48.2457428         8.98234430E-05
   48.3725357         1.08738379E-04
   48.4993286         1.27591324E-04
   48.6261215         1.46090824E-04
   48.7529144         1.63950317E-04
   48.8797073         1.80892923E-04
   49.0065002         1.96656096E-04
   49.1332932         2.10996164E-04
   49.2600861         2.23692419E-04
   49.3868790         2.34550767E-04
   49.5136681         2.43407252E-04
   49.6404610         2.50130630E-04
   49.7672539         2.54624698E-04
   49.8940468         2.56829750E-04
   50.0208397         2.56723491E-04
   50.1476326         2.54321261E-04
   50.2744255         2.49675417E-04
   50.4012184         2.42874143E-04
   50.5280113         2.34039442E-04
   50.6548042         2.23324634E-04
   50.7815971         2.10911108E-04
   50.9083900         1.97004600E-04
   51.0351830         1.81831128E-04
   51.1619759         1.65632518E-04
   51.2887688         1.48661609E-04
   51.4155579         1.31177498E-04
   51.5423508         1.13440583E-04
   51.6691437         9.57077937E-05
   51.7959366         7.82280549E-05
   51.9227295         6.12379226E-05
   52.0495224         4.49576692E-05
   52.1763153         2.95879308E-05
   52.3031082         1.53067213E-05
   52.4299011         2.26715224E-06
   52.5566940        -9.40425707E-06
   52.6834869        -1.96086385E-05
   52.8102798        -2.82752135E-05
   52.9370728        -3.53610885E-05
   53.0638657        -4.08505111E-05
   53.1906586        -4.47535531E-05
   53.3174477        -4.71043677E-05
   53.4442406        -4.79590890E-05
   53.5710335        -4.73933796E-05
   53.6978264        -4.54998299E-05
   53.8246193        -4.23852107E-05
   53.9514122        -3.81677237E-05
   54.0782051        -3.29743052E-05
   54.2049980        -2.69380544E-05
   54.3317909        -2.01958101E-05
   54.4585838        -1.28859465E-05
   54.5853767        -5.14642943E-06
   54.7121696         2.88692399E-06
   54.8389626         1.10819756E-05
   54.9657555         1.93115429E-05
   55.0925484         2.74545891E-05
   55.2193375         3.53972246E-05
   55.3461304         4.30336331E-05
   55.4729233         5.02669100E-05
   55.5997162         5.70099546E-05
   55.7265091         6.31862058E-05
   55.8533020         6.87304564E-05
   55.9800949         7.35895519E-05
   56.1068878         7.77230744E-05
   56.2336807         8.11038699E-05
   56.3604736         8.37184343E-05
   56.4872665         8.55671387E-05
   56.6140594         8.66640912E-05
   56.7408524         8.70368967E-05
   56.8676453         8.67259805E-05
   56.9944382         8.57836567E-05
   57.1212273         8.42729423E-05
   57.2480202         8.22659640E-05
   57.3748131         7.98421970E-05
   57.5016060         7.70865372E-05
   57.6283989         7.40870601E-05
   57.7551918         7.09328961E-05
   57.8819847         6.77119024E-05
   58.0087776         6.45085966E-05
   58.1355705         6.14020901E-05
   58.2623634         5.84643494E-05
   58.3891563         5.57586936E-05
   58.5159492         5.33387210E-05
   58.6427422         5.12474908E-05
   58.7695351         4.95172571E-05
   58.8963280         4.81695533E-05
   59.0231171         4.72156134E-05
   59.1499100         4.66573329E-05
   59.2767029         4.64884033E-05
   59.4034958         4.66957099E-05
   59.5302887         4.72609681E-05
   59.6570816         4.81623720E-05
   59.7838745         4.93762782E-05
   59.9106674         5.08787052E-05
   60.0374603         5.26466538E-05
   60.1642532         5.46591327E-05
   60.2910461         5.68978212E-05
   60.4178391         5.93473087E-05
   60.5446320         6.19949133E-05
   60.6714249         6.48300484E-05
   60.7982178         6.78432261E-05
   60.9250069         7.10246240E-05
   61.0517998         7.43624332E-05
   61.1785927         7.78409885E-05
   61.3053856         8.14388404E-05
   61.4321785         8.51268705E-05
   61.5589714         8.88665236E-05
   61.6857643         9.26084176E-05
   61.8125572         9.62913764E-05
   61.9393501         9.98419055E-05
   62.0661430         1.03174360E-04
   62.1929359         1.06191750E-04
   62.3197289         1.08787252E-04
   62.4465218         1.10846355E-04
   62.5733147         1.12249771E-04
   62.7001076         1.12876791E-04
   62.8268967         1.12609203E-04
   62.9536896         1.11335525E-04
   63.0804825         1.08955399E-04
   63.2072754         1.05384039E-04
   63.3340683         1.00556485E-04
   63.4608612         9.44315543E-05
   63.5876541         8.69952273E-05
   63.7144470         7.82633942E-05
   63.8412399         6.82837999E-05
   63.9680328         5.71370510E-05
   64.0948257         4.49366235E-05
   64.2216187         3.18279308E-05
   64.3484116         1.79861854E-05
   64.4752045         3.61349817E-06
   64.6019974        -1.10651235E-05
   64.7287903        -2.58064847E-05
   64.8555832        -4.03545528E-05
   64.9823761        -5.44463546E-05
   65.1091690        -6.78181605E-05
   65.2359619        -8.02117793E-05
   65.3627548        -9.13806944E-05
   65.4895477        -1.01096062E-04
   65.6163330        -1.09152075E-04
   65.7431259        -1.15370851E-04
   65.8699188        -1.19606382E-04
   65.9967117        -1.21747798E-04
   66.1235046        -1.21721525E-04
   66.2502975        -1.19492557E-04
   66.3770905        -1.15064686E-04
   66.5038834        -1.08479806E-04
   66.6306763        -9.98162650E-05
   66.7574692        -8.91865566E-05
   66.8842621        -7.67341771E-05
   67.0110550        -6.26300680E-05
   67.1378479        -4.70685554E-05
   67.2646408        -3.02630615E-05
   67.3914337        -1.24417174E-05
   67.5182266         6.15709314E-06
   67.6450195         2.52890131E-05
   67.7718124         4.47077146E-05
   67.8986053         6.41687075E-05
   68.0253983         8.34326929E-05
   68.1521912         1.02268546E-04
   68.2789841         1.20455901E-04
   68.4057770         1.37787269E-04
   68.5325699         1.54069843E-04
   68.6593628         1.69126914E-04
   68.7861557         1.82799005E-04
   68.9129486         1.94944776E-04
   69.0397415         2.05441786E-04
   69.1665344         2.14186992E-04
   69.2933273         2.21097333E-04
   69.4201126         2.26110220E-04
   69.5469055         2.29183919E-04
   69.6736984         2.30298014E-04
   69.8004913         2.29453799E-04
   69.9272842         2.26674529E-04
   70.0540771         2.22005678E-04
   70.1808701         2.15514970E-04
   70.3076630         2.07292207E-04
   70.4344559         1.97448840E-04
   70.5612488         1.86117104E-04
   70.6880417         1.73448920E-04
   70.8148346         1.59614239E-04
   70.9416275         1.44799124E-04
   71.0684204         1.29203225E-04
   71.1952133         1.13036942E-04
   71.3220062         9.65181534E-05
   71.4487991         7.98687761E-05
   71.5755920         6.33108866E-05
   71.7023849         4.70629275E-05
   71.8291779         3.13357923E-05
   71.9559708         1.63290606E-05
   72.0827637         2.22740641E-06
   72.2095566        -1.08025406E-05
   72.3363495        -2.26150369E-05
   72.4631424        -3.30874427E-05
   72.5899353        -4.21218865E-05
   72.7167282        -4.96463254E-05
   72.8435211        -5.56149789E-05
   72.9703140        -6.00081512E-05
   73.0971069        -6.28315611E-05
   73.2238922        -6.41150909E-05
   73.3506851        -6.39111895E-05
   73.4774780        -6.22929729E-05
   73.6042709        -5.93520017E-05
   73.7310638        -5.51960220E-05
   73.8578568        -4.99465496E-05
   73.9846497        -4.37365270E-05
   74.1114426        -3.67079119E-05
   74.2382355        -2.90094540E-05
   74.3650284        -2.07944904E-05
   74.4918213        -1.22188485E-05
   74.6186142        -3.43881356E-06
   74.7454071         5.39077064E-06
   74.8722000         1.41184364E-05
   74.9989929         2.25978638E-05
   75.1257858         3.06897709E-05
   75.2525787         3.82636208E-05
   75.3793716         4.51993947E-05
   75.5061646         5.13892919E-05
   75.6329575         5.67393326E-05
   75.7597504         6.11708674E-05
   75.8865433         6.46219414E-05
   76.0133362         6.70484296E-05
   76.1401291         6.84250408E-05
   76.2669220         6.87459105E-05
   76.3937149         6.80249868E-05
   76.5205078         6.62960447E-05
   76.6473007         6.36123150E-05
   76.7740936         6.00458116E-05
   76.9008865         5.56862105E-05
   77.0276718         5.06394244E-05
   77.1544647         4.50258376E-05
   77.2812576         3.89782545E-05
   77.4080505         3.26395166E-05
   77.5348434         2.61599944E-05
   77.6616364         1.96947931E-05
   77.7884293         1.34008724E-05
   77.9152222         7.43406190E-06
   78.0420151         1.94598033E-06
   78.1688080        -2.91898414E-06
   78.2956009        -7.02668103E-06
   78.4223938        -1.02561216E-05
   78.5491867        -1.25022198E-05
   78.6759796        -1.36782983E-05
   78.8027725        -1.37183561E-05
   78.9295654        -1.25789302E-05
   79.0563583        -1.02406366E-05
   79.1831512        -6.70917871E-06
   79.3099442        -2.01585613E-06
   79.4367371         3.78244022E-06
   79.5635300         1.06038333E-05
   79.6903229         1.83426564E-05
   79.8171158         2.68712120E-05
   79.9439087         3.60421909E-05
   80.0707016         4.56915077E-05
   80.1974945         5.56417181E-05
   80.3242874         6.57058481E-05
   80.4510803         7.56915033E-05
   80.5778732         8.54053214E-05
   80.7046585         9.46575019E-05
   80.8314514         1.03266328E-04
   80.9582443         1.11062669E-04
   81.0850372         1.17894175E-04
   81.2118301         1.23629201E-04
   81.3386230         1.28160158E-04
   81.4654160         1.31406385E-04
   81.5922089         1.33316265E-04
   81.7190018         1.33868758E-04
   81.8457947         1.33073932E-04
   81.9725876         1.30972840E-04
   82.0993805         1.27636580E-04
   82.2261734         1.23164384E-04
   82.3529663         1.17681149E-04
   82.4797592         1.11334099E-04
   82.6065521         1.04288985E-04
   82.7333450         9.67256201E-05
   82.8601379         8.88330978E-05
   82.9869308         8.08047189E-05
   83.1137238         7.28327577E-05
   83.2405167         6.51033479E-05
   83.3673096         5.77913779E-05
   83.4941025         5.10558202E-05
   83.6208954         4.50354455E-05
   83.7476883         3.98451739E-05
   83.8744812         3.55731390E-05
   84.0012741         3.22784472E-05
   84.1280670         2.99899948E-05
   84.2548599         2.87060429E-05
   84.3816528         2.83948029E-05
   84.5084381         2.89959244E-05
   84.6352310         3.04228088E-05
   84.7620239         3.25657311E-05
   84.8888168         3.52956122E-05
   85.0156097         3.84683299E-05
   85.1424026         4.19294083E-05
   85.2691956         4.55188929E-05
   85.3959885         4.90763268E-05
   85.5227814         5.24455681E-05
   85.6495743         5.54793660E-05
   85.7763672         5.80434353E-05
   85.9031601         6.00200692E-05
   86.0299530         6.13110024E-05
   86.1567459         6.18396371E-05
   86.2835388         6.15525132E-05
   86.4103317         6.04199340E-05
   86.5371246         5.84358713E-05
   86.6639175         5.56172417E-05
   86.7907104         5.20024514E-05
   86.9175034         4.76494861E-05
   87.0442963         4.26334955E-05
   87.1710892         3.70441194E-05
   87.2978821         3.09825409E-05
   87.4246750         2.45584706E-05
   87.5514679         1.78870650E-05
   87.6782608         1.10860310E-05
   87.8050537         4.27283385E-06
   87.9318466        -2.43784689E-06
   88.0586395        -8.93633296E-06
   88.1854324        -1.51198601E-05
   88.3122177        -2.08941383E-05
   88.4390106        -2.61745154E-05
   88.5658035        -3.08867820E-05
   88.6925964        -3.49676520E-05
   88.8193893        -3.83648730E-05
   88.9461823        -4.10371395E-05
   89.0729752        -4.29536994E-05
   89.1997681        -4.40938093E-05
   89.3265610        -4.44461002E-05
   89.4533539        -4.40078875E-05
   89.5801468        -4.27844461E-05
   89.7069397        -4.07884545E-05
   89.8337326        -3.80394667E-05
   89.9605255        -3.45634944E-05
   90.0873184        -3.03928282E-05
   90.2141113        -2.55659106E-05
   90.3409042        -2.01274197E-05
   90.4676971        -1.41283563E-05
   90.5944901        -7.62629679E-06
   90.7212830        -6.85539419E-07
   90.8480759         6.62275625E-06
   90.9748688         1.42205699E-05
   91.1016617         2.20232650E-05
   91.2284546         2.99399871E-05
   91.3552475         3.78744553E-05
   91.4820404         4.57260139E-05
   91.6088333         5.33910570E-05
   91.7356262         6.07647598E-05
   91.8624191         6.77431235E-05
   91.9892120         7.42252087E-05
   92.1159973         8.01155766E-05
   92.2427902         8.53267557E-05
   92.3695831         8.97817445E-05
   92.4963760         9.34163254E-05
   92.6231689         9.61811747E-05
   92.7499619         9.80436962E-05
   92.8767548         9.89893088E-05
   93.0035477         9.90223998E-05
   93.1303406         9.81666599E-05
   93.2571335         9.64648207E-05
   93.3839264         9.39779129E-05
   93.5107193         9.07839203E-05
   93.6375122         8.69759242E-05
   93.7643051         8.26598334E-05
   93.8910980         7.79518159E-05
   94.0178909         7.29753519E-05
   94.1446838         6.78582728E-05
   94.2714767         6.27295885E-05
   94.3982697         5.77165374E-05
   94.5250626         5.29415483E-05
   94.6518555         4.85196033E-05
   94.7786484         4.45557926E-05
   94.9054413         4.11431538E-05
   95.0322342         3.83609295E-05
   95.1590271         3.62732244E-05
   95.2858200         3.49280053E-05
   95.4126129         3.43565298E-05
   95.5394058         3.45731169E-05
   95.6661987         3.55753291E-05
   95.7929916         3.73444236E-05
   95.9197769         3.98460870E-05
   96.0465698         4.30314649E-05
   96.1733627         4.68383805E-05
   96.3001556         5.11927319E-05
   96.4269485         5.60100380E-05
   96.5537415         6.11970972E-05
   96.6805344         6.66537089E-05
   96.8073273         7.22744517E-05
   96.9341202         7.79505717E-05
   97.0609131         8.35717074E-05
   97.1877060         8.90277370E-05
   97.3144989         9.42105544E-05
   97.4412918         9.90157205E-05
   97.5680847         1.03344180E-04
   97.6948776         1.07103740E-04
   97.8216705         1.10210574E-04
   97.9484634         1.12590511E-04
   98.0752563         1.14180300E-04