  -4.50000000         0.00000000    
  -4.37320757         0.00000000    
  -4.24641466         0.00000000    
  -4.11962223         0.00000000    
  -3.99282932         1.38581562E-23
  -3.86603665        -4.67306357E-22
  -3.73924398        -5.00739034E-21
  -3.61245155        -2.43511843E-20
  -3.48565888        -7.36021819E-20
  -3.35886621        -1.44653649E-19
  -3.23207355        -1.45031864E-19
  -3.10528088         1.61620726E-19
  -2.97848821         1.11967592E-18
  -2.85169554         2.95422779E-18
  -2.72490287         5.37622317E-18
  -2.59811020         7.24549171E-18
  -2.47131753         6.61233086E-18
  -2.34452486         1.23878651E-18
  -2.21773219        -1.08019407E-17
  -2.09093952        -3.12056698E-17
  -1.96414697        -6.25535883E-17
  -1.83735430        -1.09466157E-16
  -1.71056163        -1.77263019E-16
  -1.58376896        -2.65516453E-16
  -1.45697629        -3.56666463E-16
  -1.33018374        -4.05164128E-16
  -1.20339108        -3.37530559E-16
  -1.07659841        -7.38185971E-17
 -0.949805737         4.27000876E-16
 -0.823013067         1.11024791E-15
 -0.696220458         1.78557404E-15
 -0.569427788         2.13880732E-15
 -0.442635119         1.82021621E-15
 -0.315842479         6.05052840E-16
 -0.189049825        -1.41681592E-15
  -6.22571707E-02    -3.69895011E-15
   6.45354837E-02    -5.23117765E-15
  0.191328138        -4.72942625E-15
  0.318120778        -1.02439074E-15
  0.444913447         6.43015406E-15
  0.571706116         1.70833400E-14
  0.698498726         2.90380885E-14
  0.825291395         3.91910320E-14
  0.952084064         4.38294285E-14
   1.07887673         3.96067219E-14
   1.20566940         2.46656536E-14
   1.33246195        -4.24349081E-16
   1.45925462        -3.22524871E-14
   1.58604729        -6.48967710E-14
   1.71283996        -9.10118538E-14
   1.83963263        -1.03446582E-13
   1.96642530        -9.69760635E-14
   2.09321785        -6.96755343E-14
   2.22001052        -2.35682767E-14
   2.34680319         3.55802288E-14
   2.47359586         9.91612933E-14
   2.60038853         1.56936259E-13
   2.72718120         1.98138543E-13
   2.85397387         2.12203708E-13
   2.98076653         1.89187967E-13
   3.10755920         1.20278191E-13
   3.23435187        -1.01991661E-15
   3.36114454        -1.76540450E-13
   3.48793697        -3.99943127E-13
   3.61472964        -6.52691659E-13
   3.74152231        -9.00885378E-13
   3.86831498        -1.09470289E-12
   3.99510765        -1.17207047E-12
   4.12190056        -1.06736365E-12
   4.24869299        -7.24602073E-13
   4.37548542        -1.13027202E-13
   4.50227833         7.58352203E-13
   4.62907076         1.83121704E-12
   4.75586367         2.99684344E-12
   4.88265610         4.10528339E-12
   5.00944901         4.98422137E-12
   5.13624144         5.46433992E-12
   5.26303434         5.40602155E-12
   5.38982677         4.72146801E-12
   5.51661968         3.38715102E-12
   5.64341211         1.44386022E-12
   5.77020502        -1.01511670E-12
   5.89699745        -3.86385151E-12
   6.02379036        -6.96563337E-12
   6.15058279        -1.01903642E-11
   6.27737522        -1.34229216E-11
   6.40416813        -1.65616635E-11
   6.53096056        -1.95109866E-11
   6.65775347        -2.21759347E-11
   6.78454590        -2.44689494E-11
   6.91133881        -2.63374149E-11
   7.03813124        -2.78155259E-11
   7.16492414        -2.90955766E-11
   7.29171658        -3.06039707E-11
   7.41850948        -3.30583443E-11
   7.54530191        -3.74771880E-11
   7.67209482        -4.51145094E-11
   7.79888725        -5.73005289E-11
   7.92567968        -7.51842893E-11
   8.05247211        -9.93937155E-11
   8.17926502        -1.29648028E-10
   8.30605793        -1.64372571E-10
   8.43285084        -2.00372094E-10
   8.55964279        -2.32613748E-10
   8.68643570        -2.54154642E-10
   8.81322861        -2.56226040E-10
   8.94002151        -2.28463415E-10
   9.06681347        -1.59255054E-10
   9.19360638        -3.61832751E-11
   9.32039928         1.53447838E-10
   9.44719219         4.21966351E-10
   9.57398415         7.80485010E-10
   9.70077705         1.23772159E-09
   9.82756996         1.79833004E-09
   9.95436192         2.46059439E-09
   10.0811548         3.21340354E-09
   10.2079477         4.03254985E-09
   10.3347406         4.87656138E-09
   10.4615326         5.68250025E-09
   10.5883255         6.36235065E-09
   10.7151184         6.80079726E-09
   10.8419113         6.85527191E-09
   10.9687033         6.35912301E-09
   11.0954962         5.12857135E-09
   11.2222891         2.97383651E-09
   11.3490820        -2.85665630E-10
   11.4758739        -4.80265783E-09
   11.6026669        -1.06810694E-08
   11.7294598        -1.79546227E-08
   11.8562517        -2.65672089E-08
   11.9830446        -3.63577612E-08
   12.1098375        -4.70526231E-08
   12.2366304        -5.82685935E-08
   12.3634224        -6.95297189E-08
   12.4902153        -8.03009073E-08
   12.6170082        -9.00411052E-08
   12.7438011        -9.82782993E-08
   12.8705931        -1.04708164E-07
   12.9973860        -1.09317213E-07
   13.1241789        -1.12530664E-07
   13.2509708        -1.15383749E-07
   13.3777637        -1.19714130E-07
   13.5045567        -1.28371212E-07
   13.6313496        -1.45437056E-07
   13.7581415        -1.76451110E-07
   13.8849344        -2.28630228E-07
   14.0117273        -3.11073848E-07
   14.1385202        -4.34943047E-07
   14.2653122        -6.13602083E-07
   14.3921051        -8.62711090E-07
   14.5188980        -1.20025936E-06
   14.6456909        -1.64653011E-06
   14.7724829        -2.22399012E-06
   14.8992758        -2.95709810E-06
   15.0260687        -3.87203227E-06
   15.1528606        -4.99633825E-06
   15.2796535        -6.35850074E-06
   15.4064465        -7.98744895E-06
   15.5332394        -9.91200159E-06
   15.6600313        -1.21602770E-05
   15.7868242        -1.47590636E-05
   15.9136171        -1.77331858E-05
   16.0404091        -2.11048700E-05
   16.1672020        -2.48931265E-05
   16.2939949        -2.91131655E-05
   16.4207878        -3.37758611E-05
   16.5475807        -3.88872613E-05
   16.6743736        -4.44481557E-05
   16.8011646        -5.04537493E-05
   16.9279575        -5.68933501E-05
   17.0547504        -6.37501798E-05
   17.1815434        -7.10012682E-05
   17.3083363        -7.86174205E-05
   17.4351292        -8.65632537E-05
   17.5619221        -9.47974113E-05
   17.6887150        -1.03272825E-04
   17.8155060        -1.11937094E-04
   17.9422989        -1.20733057E-04
   18.0690918        -1.29599401E-04
   18.1958847        -1.38471471E-04
   18.3226776        -1.47282175E-04
   18.4494705        -1.55963004E-04
   18.5762634        -1.64445170E-04
   18.7030544        -1.72660744E-04
   18.8298473        -1.80543968E-04
   18.9566402        -1.88032529E-04
   19.0834332        -1.95068671E-04
   19.2102261        -2.01600458E-04
   19.3370190        -2.07582838E-04
   19.4638119        -2.12978513E-04
   19.5906048        -2.17758745E-04
   19.7173958        -2.21903814E-04
   19.8441887        -2.25403404E-04
   19.9709816        -2.28256671E-04
   20.0977745        -2.30471996E-04
   20.2245674        -2.32066595E-04
   20.3513603        -2.33065948E-04
   20.4781532        -2.33502840E-04
   20.6049442        -2.33416562E-04
   20.7317371        -2.32851628E-04
   20.8585300        -2.31856713E-04
   20.9853230        -2.30483565E-04
   21.1121159        -2.28785793E-04
   21.2389088        -2.26817894E-04
   21.3657017        -2.24634467E-04
   21.4924946        -2.22289338E-04
   21.6192856        -2.19835216E-04
   21.7460785        -2.17323235E-04
   21.8728714        -2.14802800E-04
   21.9996643        -2.12321582E-04
   22.1264572        -2.09925623E-04
   22.2532501        -2.07659497E-04
   22.3800430        -2.05566452E-04
   22.5068340        -2.03688542E-04
   22.6336269        -2.02066891E-04
   22.7604198        -2.00741386E-04
   22.8872128        -1.99750633E-04
   23.0140057        -1.99131435E-04
   23.1407986        -1.98918249E-04
   23.2675915        -1.99142320E-04
   23.3943844        -1.99830785E-04
   23.5211754        -2.01005489E-04
   23.6479683        -2.02681753E-04
   23.7747612        -2.04867276E-04
   23.9015541        -2.07560923E-04
   24.0283470        -2.10751692E-04
   24.1551399        -2.14417974E-04
   24.2819328        -2.18526984E-04
   24.4087238        -2.23034745E-04
   24.5355167        -2.27886354E-04
   24.6623096        -2.33016617E-04
   24.7891026        -2.38351378E-04
   24.9158955        -2.43809016E-04
   25.0426884        -2.49302597E-04
   25.1694813        -2.54742219E-04
   25.2962742        -2.60037603E-04
   25.4230652        -2.65101058E-04
   25.5498581        -2.69850279E-04
   25.6766510        -2.74211343E-04
   25.8034439        -2.78121355E-04
   25.9302368        -2.81531044E-04
   26.0570297        -2.84406764E-04
   26.1838226        -2.86732160E-04
   26.3106136        -2.88509298E-04
   26.4374065        -2.89759395E-04
   26.5641994        -2.90522352E-04
   26.6909924        -2.90856551E-04
   26.8177853        -2.90837284E-04
   26.9445782        -2.90554861E-04
   27.0713711        -2.90112395E-04
   27.1981640        -2.89623102E-04
   27.3249550        -2.89207121E-04
   27.4517479        -2.88988143E-04
   27.5785408        -2.89090356E-04
   27.7053337        -2.89634831E-04
   27.8321266        -2.90736585E-04
   27.9589195        -2.92501441E-04
   28.0857124        -2.95023754E-04
   28.2125034        -2.98383995E-04
   28.3392963        -3.02647095E-04
   28.4660892        -3.07861395E-04
   28.5928822        -3.14057776E-04
   28.7196751        -3.21249419E-04
   28.8464680        -3.29432194E-04
   28.9732609        -3.38585291E-04
   29.1000538        -3.48672154E-04
   29.2268448        -3.59642087E-04
   29.3536377        -3.71431612E-04
   29.4804306        -3.83966399E-04
   29.6072235        -3.97163385E-04
   29.7340164        -4.10932378E-04
   29.8608093        -4.25178529E-04
   29.9876022        -4.39804106E-04
   30.1143932        -4.54710447E-04
   30.2411861        -4.69799823E-04
   30.3679790        -4.84977150E-04
   30.4947720        -5.00151480E-04
   30.6215649        -5.15237334E-04
   30.7483578        -5.30155841E-04
   30.8751507        -5.44835697E-04
   31.0019417        -5.59213746E-04
   31.1287346        -5.73235680E-04
   31.2555275        -5.86855982E-04
   31.3823204        -6.00038213E-04
   31.5091133        -6.12754666E-04
   31.6359062        -6.24985783E-04
   31.7626991        -6.36719691E-04
   31.8894920        -6.47951267E-04
   32.0162849        -6.58680859E-04
   32.1430779        -6.68913126E-04
   32.2698708        -6.78655400E-04
   32.3966637        -6.87916181E-04
   32.5234528        -6.96703151E-04
   32.6502457        -7.05021608E-04
   32.7770386        -7.12872541E-04
   32.9038315        -7.20250828E-04
   33.0306244        -7.27143371E-04
   33.1574173        -7.33527995E-04
   33.2842102        -7.39371637E-04
   33.4110031        -7.44629826E-04
   33.5377960        -7.49245926E-04
   33.6645889        -7.53151020E-04
   33.7913818        -7.56264315E-04
   33.9181747        -7.58493843E-04
   34.0449677        -7.59738090E-04
   34.1717606        -7.59887393E-04
   34.2985535        -7.58827082E-04
   34.4253426        -7.56439578E-04
   34.5521355        -7.52608059E-04
   34.6789284        -7.47219659E-04
   34.8057213        -7.40169489E-04
   34.9325142        -7.31364009E-04
   35.0593071        -7.20724987E-04
   35.1861000        -7.08192878E-04
   35.3128929        -6.93730137E-04
   35.4396858        -6.77324133E-04
   35.5664787        -6.58989069E-04
   35.6932716        -6.38768077E-04
   35.8200645        -6.16733916E-04
   35.9468575        -5.92989498E-04
   36.0736504        -5.67667594E-04
   36.2004433        -5.40929323E-04
   36.3272324        -5.12962404E-04
   36.4540253        -4.83978889E-04
   36.5808182        -4.54211549E-04
   36.7076111        -4.23910446E-04
   36.8344040        -3.93338647E-04
   36.9611969        -3.62767663E-04
   37.0879898        -3.32472526E-04
   37.2147827        -3.02726927E-04
   37.3415756        -2.73798185E-04
   37.4683685        -2.45942269E-04
   37.5951614        -2.19398993E-04
   37.7219543        -1.94387860E-04
   37.8487473        -1.71103893E-04
   37.9755402        -1.49714222E-04
   38.1023293        -1.30355300E-04
   38.2291222        -1.13130729E-04
   38.3559151        -9.81097837E-05
   38.4827080        -8.53267120E-05
   38.6095009        -7.47807062E-05
   38.7362938        -6.64366744E-05
   38.8630867        -6.02266155E-05
   38.9898796        -5.60516055E-05
   39.1166725        -5.37843334E-05
   39.2434654        -5.32722042E-05
   39.3702583        -5.43407077E-05
   39.4970512        -5.67971547E-05
   39.6238441        -6.04346860E-05
   39.7506371        -6.50363727E-05
   39.8774300        -7.03794140E-05
   40.0042191        -7.62393393E-05
   40.1310120        -8.23941227E-05
   40.2578049        -8.86281341E-05
   40.3845978        -9.47359949E-05
   40.5113907        -1.00525991E-04
   40.6381836        -1.05823376E-04
   40.7649765        -1.10473018E-04
   40.8917694        -1.14341885E-04
   41.0185623        -1.17320815E-04
   41.1453552        -1.19325967E-04
   41.2721481        -1.20299483E-04
   41.3989410        -1.20209777E-04
   41.5257339        -1.19051161E-04
   41.6525269        -1.16842879E-04
   41.7793198        -1.13627626E-04
   41.9061089        -1.09469678E-04
   42.0329018        -1.04452360E-04
   42.1596947        -9.86754312E-05
   42.2864876        -9.22520921E-05
   42.4132805        -8.53058446E-05
   42.5400734        -7.79672700E-05
   42.6668663        -7.03709593E-05
   42.7936592        -6.26524998E-05
   42.9204521        -5.49458018E-05
   43.0472450        -4.73806504E-05
   43.1740379        -4.00807075E-05
   43.3008308        -3.31618685E-05
   43.4276237        -2.67309915E-05
   43.5544167        -2.08850979E-05
   43.6812096        -1.57108352E-05
   43.8079987        -1.12842699E-05
   43.9347916        -7.67090660E-06
   44.0615845        -4.92584104E-06
   44.1883774        -3.09400366E-06
   44.3151703        -2.21041932E-06
   44.4419632        -2.30041564E-06
   44.5687561        -3.37971915E-06
   44.6955490        -5.45441890E-06
   44.8223419        -8.52080939E-06
   44.9491348        -1.25650758E-05
   45.0759277        -1.75628811E-05
   45.2027206        -2.34788840E-05
   45.3295135        -3.02662593E-05
   45.4563065        -3.78662808E-05
   45.5830994        -4.62080097E-05
   45.7098885        -5.52081983E-05
   45.8366814        -6.47715133E-05
   45.9634743        -7.47910017E-05
   46.0902672        -8.51490113E-05
   46.2170601        -9.57184893E-05
   46.3438530        -1.06364627E-04
   46.4706459        -1.16946983E-04
   46.5974388        -1.27321953E-04
   46.7242317        -1.37345443E-04
   46.8510246        -1.46875827E-04
   46.9778175        -1.55777016E-04
   47.1046104        -1.63921504E-04
   47.2314034        -1.71193373E-04
   47.3581963        -1.77490932E-04
   47.4849892        -1.82729273E-04
   47.6117783        -1.86842255E-04
   47.7385712        -1.89784099E-04
   47.8653641        -1.91530475E-04
   47.9921570        -1.92079009E-04
   48.1189499        -1.91449290E-04
   48.2457428        -1.89682280E-04
   48.3725357        -1.86839272E-04
   48.4993286        -1.83000331E-04
   48.6261215        -1.78262431E-04
   48.7529144        -1.72737025E-04
   48.8797073        -1.66547659E-04
   49.0065002        -1.59827221E-04
   49.1332932        -1.52715074E-04
   49.2600861        -1.45354294E-04
   49.3868790        -1.37888885E-04
   49.5136681        -1.30461136E-04
   49.6404610        -1.23209218E-04
   49.7672539        -1.16264942E-04
   49.8940468        -1.09751803E-04
   50.0208397        -1.03783321E-04
   50.1476326        -9.84617436E-05
   50.2744255        -9.38768862E-05
   50.4012184        -9.01053718E-05
   50.5280113        -8.72100718E-05
   50.6548042        -8.52396843E-05
   50.7815971        -8.42286317E-05
   50.9083900        -8.41969450E-05
   51.0351830        -8.51503210E-05
   51.1619759        -8.70802833E-05
   51.2887688        -8.99643346E-05
   51.4155579        -9.37662044E-05
   51.5423508        -9.84362123E-05
   51.6691437        -1.03911632E-04
   51.7959366        -1.10117173E-04
   51.9227295        -1.16965697E-04
   52.0495224        -1.24358965E-04
   52.1763153        -1.32188739E-04
   52.3031082        -1.40338001E-04
   52.4299011        -1.48682564E-04
   52.5566940        -1.57092916E-04
   52.6834869        -1.65436344E-04
   52.8102798        -1.73579319E-04
   52.9370728        -1.81390162E-04
   53.0638657        -1.88741775E-04
   53.1906586        -1.95514513E-04
   53.3174477        -2.01599047E-04
   53.4442406        -2.06899000E-04
   53.5710335        -2.11333478E-04
   53.6978264        -2.14839150E-04
   53.8246193        -2.17371955E-04
   53.9514122        -2.18908201E-04
   54.0782051        -2.19445137E-04
   54.2049980        -2.19000809E-04
   54.3317909        -2.17613357E-04
   54.4585838        -2.15339503E-04
   54.5853767        -2.12252708E-04
   54.7121696        -2.08440513E-04
   54.8389626        -2.04001728E-04
   54.9657555        -1.99043177E-04
   55.0925484        -1.93676315E-04
   55.2193375        -1.88013801E-04
   55.3461304        -1.82166346E-04
   55.4729233        -1.76239497E-04
   55.5997162        -1.70331128E-04
   55.7265091        -1.64529178E-04
   55.8533020        -1.58909956E-04
   55.9800949        -1.53537098E-04
   56.1068878        -1.48461084E-04
   56.2336807        -1.43719371E-04
   56.3604736        -1.39337091E-04
   56.4872665        -1.35328286E-04
   56.6140594        -1.31697467E-04
   56.7408524        -1.28441621E-04
   56.8676453        -1.25552353E-04
   56.9944382        -1.23018122E-04
   57.1212273        -1.20826357E-04
   57.2480202        -1.18965516E-04
   57.3748131        -1.17426775E-04
   57.5016060        -1.16205360E-04
   57.6283989        -1.15301416E-04
   57.7551918        -1.14720337E-04
   57.8819847        -1.14472627E-04
   58.0087776        -1.14573166E-04
   58.1355705        -1.15040042E-04
   58.2623634        -1.15892981E-04
   58.3891563        -1.17151460E-04
   58.5159492        -1.18832577E-04
   58.6427422        -1.20948920E-04
   58.7695351        -1.23506426E-04
   58.8963280        -1.26502448E-04
   59.0231171        -1.29924098E-04
   59.1499100        -1.33746973E-04
   59.2767029        -1.37934476E-04
   59.4034958        -1.42437493E-04
   59.5302887        -1.47194849E-04
   59.6570816        -1.52134191E-04
   59.7838745        -1.57173650E-04
   59.9106674        -1.62223878E-04
   60.0374603        -1.67190592E-04
   60.1642532        -1.71977561E-04
   60.2910461        -1.76489746E-04
   60.4178391        -1.80636533E-04
   60.5446320        -1.84335047E-04
   60.6714249        -1.87513200E-04
   60.7982178        -1.90112420E-04
   60.9250069        -1.92090083E-04
   61.0517998        -1.93421220E-04
   61.1785927        -1.94099717E-04
   61.3053856        -1.94138789E-04
   61.4321785        -1.93570871E-04
   61.5589714        -1.92446561E-04
   61.6857643        -1.90833074E-04
   61.8125572        -1.88812017E-04
   61.9393501        -1.86476638E-04
   62.0661430        -1.83928569E-04
   62.1929359        -1.81274416E-04
   62.3197289        -1.78622024E-04
   62.4465218        -1.76076806E-04
   62.5733147        -1.73738183E-04
   62.7001076        -1.71696214E-04
   62.8268967        -1.70028696E-04
   62.9536896        -1.68798753E-04
   63.0804825        -1.68052953E-04
   63.2072754        -1.67820181E-04
   63.3340683        -1.68111292E-04
   63.4608612        -1.68919272E-04
   63.5876541        -1.70220213E-04
   63.7144470        -1.71975029E-04
   63.8412399        -1.74131521E-04
   63.9680328        -1.76626942E-04
   64.0948257        -1.79391005E-04
   64.2216187        -1.82348784E-04
   64.3484116        -1.85423894E-04
   64.4752045        -1.88541424E-04
   64.6019974        -1.91630606E-04
   64.7287903        -1.94627224E-04
   64.8555832        -1.97475441E-04
   64.9823761        -2.00129129E-04
   65.1091690        -2.02552706E-04
   65.2359619        -2.04721247E-04
   65.3627548        -2.06620112E-04
   65.4895477        -2.08243961E-04
   65.6163330        -2.09595339E-04
   65.7431259        -2.10682818E-04
   65.8699188        -2.11518942E-04
   65.9967117        -2.12117957E-04
   66.1235046        -2.12493498E-04
   66.2502975        -2.12656523E-04
   66.3770905        -2.12613260E-04
   66.5038834        -2.12363680E-04
   66.6306763        -2.11900406E-04
   66.7574692        -2.11208098E-04
   66.8842621        -2.10263475E-04
   67.0110550        -2.09035963E-04
   67.1378479        -2.07488818E-04
   67.2646408        -2.05580902E-04
   67.3914337        -2.03268835E-04
   67.5182266        -2.00509516E-04
   67.6450195        -1.97262852E-04
   67.7718124        -1.93494590E-04
   67.8986053        -1.89179176E-04
   68.0253983        -1.84302306E-04
   68.1521912        -1.78863163E-04
   68.2789841        -1.72876345E-04
   68.4057770        -1.66373226E-04
   68.5325699        -1.59402596E-04
   68.6593628        -1.52030843E-04
   68.7861557        -1.44341378E-04
   68.9129486        -1.36433373E-04
   69.0397415        -1.28419953E-04
   69.1665344        -1.20425764E-04
   69.2933273        -1.12584094E-04
   69.4201126        -1.05033592E-04
   69.5469055        -9.79147226E-05
   69.6736984        -9.13660988E-05
   69.8004913        -8.55207472E-05
   69.9272842        -8.05025993E-05
   70.0540771        -7.64230863E-05
   70.1808701        -7.33781999E-05
   70.3076630        -7.14459457E-05
   70.4344559        -7.06843421E-05
   70.5612488        -7.11299799E-05
   70.6880417        -7.27971856E-05
   70.8148346        -7.56778536E-05
   70.9416275        -7.97417961E-05
   71.0684204        -8.49377466E-05
   71.1952133        -9.11948446E-05
   71.3220062        -9.84245999E-05
   71.4487991        -1.06523250E-04
   71.5755920        -1.15374387E-04
   71.7023849        -1.24851795E-04
   71.8291779        -1.34822491E-04
   71.9559708        -1.45149592E-04
   72.0827637        -1.55695277E-04
   72.2095566        -1.66323458E-04
   72.3363495        -1.76902235E-04
   72.4631424        -1.87306039E-04
   72.5899353        -1.97417437E-04
   72.7167282        -2.07128425E-04
   72.8435211        -2.16341577E-04
   72.9703140        -2.24970514E-04
   73.0971069        -2.32940147E-04
   73.2238922        -2.40186622E-04
   73.3506851        -2.46656884E-04
   73.4774780        -2.52308149E-04
   73.6042709        -2.57107109E-04
   73.7310638        -2.61028938E-04
   73.8578568        -2.64056696E-04
   73.9846497        -2.66180286E-04
   74.1114426        -2.67395662E-04
   74.2382355        -2.67704425E-04
   74.3650284        -2.67113151E-04
   74.4918213        -2.65633280E-04
   74.6186142        -2.63280992E-04
   74.7454071        -2.60077446E-04
   74.8722000        -2.56049243E-04
   74.9989929        -2.51228688E-04
   75.1257858        -2.45654810E-04
   75.2525787        -2.39373709E-04
   75.3793716        -2.32439532E-04
   75.5061646        -2.24914824E-04
   75.6329575        -2.16871078E-04
   75.7597504        -2.08388854E-04
   75.8865433        -1.99557631E-04
   76.0133362        -1.90475374E-04
   76.1401291        -1.81247626E-04
   76.2669220        -1.71986307E-04
   76.3937149        -1.62808035E-04
   76.5205078        -1.53832239E-04
   76.6473007        -1.45178827E-04
   76.7740936        -1.36965697E-04
   76.9008865        -1.29306165E-04
   77.0276718        -1.22306184E-04
   77.1544647        -1.16061841E-04
   77.2812576        -1.10656722E-04
   77.4080505        -1.06159823E-04
   77.5348434        -1.02623548E-04
   77.6616364        -1.00082332E-04
   77.7884293        -9.85516381E-05
   77.9152222        -9.80275436E-05
   78.0420151        -9.84868602E-05
   78.1688080        -9.98879041E-05
   78.2956009        -1.02171725E-04
   78.4223938        -1.05263927E-04
   78.5491867        -1.09076886E-04
   78.6759796        -1.13512397E-04
   78.8027725        -1.18464603E-04
   78.9295654        -1.23823105E-04
   79.0563583        -1.29476131E-04
   79.1831512        -1.35313734E-04
   79.3099442        -1.41230732E-04
   79.4367371        -1.47129482E-04
   79.5635300        -1.52922294E-04
   79.6903229        -1.58533323E-04
   79.8171158        -1.63900069E-04
   79.9439087        -1.68974177E-04
   80.0707016        -1.73721754E-04
   80.1974945        -1.78123068E-04
   80.3242874        -1.82171629E-04
   80.4510803        -1.85872734E-04
   80.5778732        -1.89241677E-04
   80.7046585        -1.92301450E-04
   80.8314514        -1.95080240E-04
   80.9582443        -1.97608751E-04
   81.0850372        -1.99917631E-04
   81.2118301        -2.02034804E-04
   81.3386230        -2.03983291E-04
   81.4654160        -2.05779070E-04
   81.5922089        -2.07429723E-04
   81.7190018        -2.08933299E-04
   81.8457947        -2.10277998E-04
   81.9725876        -2.11442268E-04
   82.0993805        -2.12395607E-04
   82.2261734        -2.13099862E-04
   82.3529663        -2.13511128E-04
   82.4797592        -2.13581923E-04
   82.6065521        -2.13263833E-04
   82.7333450        -2.12510306E-04
   82.8601379        -2.11279403E-04
   82.9869308        -2.09536738E-04
   83.1137238        -2.07257879E-04
   83.2405167        -2.04430762E-04
   83.3673096        -2.01057352E-04
   83.4941025        -1.97155052E-04
   83.6208954        -1.92757274E-04
   83.7476883        -1.87913494E-04
   83.8744812        -1.82688644E-04
   84.0012741        -1.77161754E-04
   84.1280670        -1.71424137E-04
   84.2548599        -1.65576974E-04
   84.3816528        -1.59728486E-04
   84.5084381        -1.53990812E-04
   84.6352310        -1.48476684E-04
   84.7620239        -1.43296158E-04
   84.8888168        -1.38553281E-04
   85.0156097        -1.34343209E-04
   85.1424026        -1.30749395E-04
   85.2691956        -1.27841573E-04
   85.3959885        -1.25673876E-04
   85.5227814        -1.24283848E-04
   85.6495743        -1.23691876E-04
   85.7763672        -1.23901205E-04
   85.9031601        -1.24898506E-04
   86.0299530        -1.26654922E-04
   86.1567459        -1.29127555E-04
   86.2835388        -1.32261164E-04
   86.4103317        -1.35990296E-04
   86.5371246        -1.40241333E-04
   86.6639175        -1.44934718E-04
   86.7907104        -1.49987216E-04
   86.9175034        -1.55313988E-04
   87.0442963        -1.60830561E-04
   87.1710892        -1.66454571E-04
   87.2978821        -1.72107349E-04
   87.4246750        -1.77715090E-04
   87.5514679        -1.83209864E-04
   87.6782608        -1.88530335E-04
   87.8050537        -1.93622051E-04
   87.9318466        -1.98437629E-04
   88.0586395        -2.02936571E-04
   88.1854324        -2.07084959E-04
   88.3122177        -2.10854894E-04
   88.4390106        -2.14223837E-04
   88.5658035        -2.17173889E-04
   88.6925964        -2.19691079E-04
   88.8193893        -2.21764538E-04
   88.9461823        -2.23385927E-04
   89.0729752        -2.24548858E-04
   89.1997681        -2.25248441E-04
   89.3265610        -2.25481082E-04
   89.4533539        -2.25244366E-04
   89.5801468        -2.24537216E-04
   89.7069397        -2.23360053E-04
   89.8337326        -2.21715396E-04
   89.9605255        -2.19608308E-04
   90.0873184        -2.17047127E-04
   90.2141113        -2.14044208E-04
   90.3409042        -2.10616738E-04
   90.4676971        -2.06787430E-04
   90.5944901        -2.02585245E-04
   90.7212830        -1.98045833E-04
   90.8480759        -1.93211919E-04
   90.9748688        -1.88133359E-04
   91.1016617        -1.82867007E-04
   91.2284546        -1.77476148E-04
   91.3552475        -1.72029831E-04
   91.4820404        -1.66601749E-04
   91.6088333        -1.61268879E-04
   91.7356262        -1.56110036E-04
   91.8624191        -1.51204033E-04
   91.9892120        -1.46628008E-04
   92.1159973        -1.42455407E-04
   92.2427902        -1.38754243E-04
   92.3695831        -1.35585316E-04
   92.4963760        -1.33000663E-04
   92.6231689        -1.31042136E-04
   92.7499619        -1.29740321E-04
   92.8767548        -1.29113803E-04
   93.0035477        -1.29168649E-04
   93.1303406        -1.29898312E-04
   93.2571335        -1.31283959E-04
   93.3839264        -1.33294932E-04
   93.5107193        -1.35889757E-04
   93.6375122        -1.39017226E-04
   93.7643051        -1.42617791E-04
   93.8910980        -1.46625011E-04
   94.0178909        -1.50967244E-04
   94.1446838        -1.55569156E-04
   94.2714767        -1.60353287E-04
   94.3982697        -1.65241596E-04
   94.5250626        -1.70156723E-04
   94.6518555        -1.75023160E-04
   94.7786484        -1.79768293E-04
   94.9054413        -1.84323202E-04
   95.0322342        -1.88623366E-04
   95.1590271        -1.92609135E-04
   95.2858200        -1.96226290E-04
   95.4126129        -1.99426257E-04
   95.5394058        -2.02166557E-04
   95.6661987        -2.04411015E-04
   95.7929916        -2.06129960E-04
   95.9197769        -2.07300560E-04
   96.0465698        -2.07906996E-04
   96.1733627        -2.07940669E-04
   96.3001556        -2.07400371E-04
   96.4269485        -2.06292461E-04
   96.5537415        -2.04630822E-04
   96.6805344        -2.02436961E-04
   96.8073273        -1.99739894E-04
   96.9341202        -1.96575871E-04
   97.0609131        -1.92988125E-04
   97.1877060        -1.89026352E-04
   97.3144989        -1.84746183E-04
   97.4412918        -1.80208488E-04
   97.5680847        -1.75478664E-04
   97.6948776        -1.70625644E-04
   97.8216705        -1.65721038E-04
   97.9484634        -1.60838070E-04
   98.0752563        -1.56050650E-04