  -4.50000000         0.00000000    
  -4.37320757         0.00000000    
  -4.24641466         0.00000000    
  -4.11962223         0.00000000    
  -3.99282932         0.00000000    
  -3.86603665         0.00000000    
  -3.73924398         0.00000000    
  -3.61245155         0.00000000    
  -3.48565888         0.00000000    
  -3.35886621         0.00000000    
  -3.23207355         0.00000000    
  -3.10528088         0.00000000    
  -2.97848821         0.00000000    
  -2.85169554         0.00000000    
  -2.72490287         0.00000000    
  -2.59811020         0.00000000    
  -2.47131753         0.00000000    
  -2.34452486         0.00000000    
  -2.21773219         0.00000000    
  -2.09093952         0.00000000    
  -1.96414697         0.00000000    
  -1.83735430         0.00000000    
  -1.71056163         0.00000000    
  -1.58376896         0.00000000    
  -1.45697629         0.00000000    
  -1.33018374         0.00000000    
  -1.20339108         0.00000000    
  -1.07659841         0.00000000    
 -0.949805737         0.00000000    
 -0.823013067         0.00000000    
 -0.696220458         0.00000000    
 -0.569427788         0.00000000    
 -0.442635119         0.00000000    
 -0.315842479         0.00000000    
 -0.189049825         0.00000000    
  -6.22571707E-02     0.00000000    
   6.45354837E-02     0.00000000    
  0.191328138         0.00000000    
  0.318120778         0.00000000    
  0.444913447         0.00000000    
  0.571706116         0.00000000    
  0.698498726         0.00000000    
  0.825291395         0.00000000    
  0.952084064         0.00000000    
   1.07887673         0.00000000    
   1.20566940         0.00000000    
   1.33246195         0.00000000    
   1.45925462         0.00000000    
   1.58604729         0.00000000    
   1.71283996         0.00000000    
   1.83963263         0.00000000    
   1.96642530         0.00000000    
   2.09321785         0.00000000    
   2.22001052         0.00000000    
   2.34680319         0.00000000    
   2.47359586         0.00000000    
   2.60038853         0.00000000    
   2.72718120         0.00000000    
   2.85397387         0.00000000    
   2.98076653         0.00000000    
   3.10755920         0.00000000    
   3.23435187         0.00000000    
   3.36114454         0.00000000    
   3.48793697         0.00000000    
   3.61472964         0.00000000    
   3.74152231         0.00000000    
   3.86831498         0.00000000    
   3.99510765         0.00000000    
   4.12190056         0.00000000    
   4.24869299         0.00000000    
   4.37548542         0.00000000    
   4.50227833         0.00000000    
   4.62907076         0.00000000    
   4.75586367         0.00000000    
   4.88265610         0.00000000    
   5.00944901         0.00000000    
   5.13624144         0.00000000    
   5.26303434         0.00000000    
   5.38982677         0.00000000    
   5.51661968         0.00000000    
   5.64341211         0.00000000    
   5.77020502         0.00000000    
   5.89699745         0.00000000    
   6.02379036         0.00000000    
   6.15058279         0.00000000    
   6.27737522         0.00000000    
   6.40416813         0.00000000    
   6.53096056         0.00000000    
   6.65775347         0.00000000    
   6.78454590         0.00000000    
   6.91133881         0.00000000    
   7.03813124         0.00000000    
   7.16492414         0.00000000    
   7.29171658         0.00000000    
   7.41850948         0.00000000    
   7.54530191         0.00000000    
   7.67209482         0.00000000    
   7.79888725         0.00000000    
   7.92567968         0.00000000    
   8.05247211         0.00000000    
   8.17926502         0.00000000    
   8.30605793         0.00000000    
   8.43285084         0.00000000    
   8.55964279         0.00000000    
   8.68643570         0.00000000    
   8.81322861         0.00000000    
   8.94002151         0.00000000    
   9.06681347         0.00000000    
   9.19360638         0.00000000    
   9.32039928         0.00000000    
   9.44719219         0.00000000    
   9.57398415         0.00000000    
   9.70077705         0.00000000    
   9.82756996         0.00000000    
   9.95436192         0.00000000    
   10.0811548         0.00000000    
   10.2079477         0.00000000    
   10.3347406         0.00000000    
   10.4615326         0.00000000    
   10.5883255         0.00000000    
   10.7151184         0.00000000    
   10.8419113         0.00000000    
   10.9687033         0.00000000    
   11.0954962         0.00000000    
   11.2222891         0.00000000    
   11.3490820         0.00000000    
   11.4758739         0.00000000    
   11.6026669         0.00000000    
   11.7294598         0.00000000    
   11.8562517         0.00000000    
   11.9830446         0.00000000    
   12.1098375         0.00000000    
   12.2366304         0.00000000    
   12.3634224         0.00000000    
   12.4902153         0.00000000    
   12.6170082         0.00000000    
   12.7438011         0.00000000    
   12.8705931         0.00000000    
   12.9973860         0.00000000    
   13.1241789         0.00000000    
   13.2509708         0.00000000    
   13.3777637         0.00000000    
   13.5045567         0.00000000    
   13.6313496         0.00000000    
   13.7581415         0.00000000    
   13.8849344         0.00000000    
   14.0117273         0.00000000    
   14.1385202         0.00000000    
   14.2653122         0.00000000    
   14.3921051         0.00000000    
   14.5188980         0.00000000    
   14.6456909         0.00000000    
   14.7724829         0.00000000    
   14.8992758         0.00000000    
   15.0260687         0.00000000    
   15.1528606         0.00000000    
   15.2796535         0.00000000    
   15.4064465         0.00000000    
   15.5332394         0.00000000    
   15.6600313         0.00000000    
   15.7868242         0.00000000    
   15.9136171         0.00000000    
   16.0404091         0.00000000    
   16.1672020         0.00000000    
   16.2939949         0.00000000    
   16.4207878         0.00000000    
   16.5475807         0.00000000    
   16.6743736         0.00000000    
   16.8011646         0.00000000    
   16.9279575         0.00000000    
   17.0547504         0.00000000    
   17.1815434         0.00000000    
   17.3083363         0.00000000    
   17.4351292         0.00000000    
   17.5619221         0.00000000    
   17.6887150         0.00000000    
   17.8155060         0.00000000    
   17.9422989         0.00000000    
   18.0690918         0.00000000    
   18.1958847         0.00000000    
   18.3226776         0.00000000    
   18.4494705         0.00000000    
   18.5762634         0.00000000    
   18.7030544         0.00000000    
   18.8298473         0.00000000    
   18.9566402         0.00000000    
   19.0834332         5.21846310E-35
   19.2102261         1.59989637E-34
   19.3370190         2.67794649E-34
   19.4638119         3.26289038E-34
   19.5906048         2.98064386E-34
   19.7173958         3.92605976E-34
   19.8441887         3.54328642E-34
   19.9709816        -3.67138615E-34
   20.0977745        -1.92029859E-33
   20.2245674        -4.01257678E-33
   20.3513603        -5.39960759E-33
   20.4781532        -5.36055656E-33
   20.6049442        -3.17842138E-33
   20.7317371         4.36514042E-34
   20.8585300         4.74225608E-33
   20.9853230         9.56979135E-33
   21.1121159         1.44263205E-32
   21.2389088         1.92489889E-32
   21.3657017         1.87810231E-32
   21.4924946         1.35711734E-32
   21.6192856         1.27174622E-33
   21.7460785        -8.38329290E-33
   21.8728714        -8.05873450E-33
   21.9996643         7.94136433E-34
   22.1264572         1.75950727E-32
   22.2532501         3.55981184E-32
   22.3800430         5.51614184E-32
   22.5068340         6.23909943E-31
   22.6336269         1.74689219E-30
   22.7604198         3.61014741E-30
   22.8872128         6.35499630E-30
   23.0140057         9.45695023E-30
   23.1407986         1.30064925E-29
   23.2675915         1.50455874E-29
   23.3943844         1.52669099E-29
   23.5211754         1.30911492E-29
   23.6479683         9.79746819E-30
   23.7747612         4.94709186E-30
   23.9015541        -9.06496857E-31
   24.0283470        -8.08446785E-30
   24.1551399        -2.29974347E-29
   24.2819328        -4.15086292E-29
   24.4087238        -6.45054906E-29
   24.5355167        -8.98010337E-29
   24.6623096        -1.11304631E-28
   24.7891026        -1.29900893E-28
   24.9158955        -1.39580172E-28
   25.0426884        -1.36060306E-28
   25.1694813        -1.19532589E-28
   25.2962742        -9.25111722E-29
   25.4230652        -5.15660280E-29
   25.5498581        -8.93231864E-30
   25.6766510         1.36238253E-29
   25.8034439         1.84897610E-29
   25.9302368         5.08723298E-30
   26.0570297        -3.03717226E-29
   26.1838226        -8.28643997E-29
   26.3106136        -1.38474339E-28
   26.4374065        -1.99518217E-28
   26.5641994        -2.53365497E-28
   26.6909924        -2.81750695E-28
   26.8177853        -2.68421286E-28
   26.9445782        -2.05491838E-28
   27.0713711        -7.46803230E-29
   27.1981640         1.31096920E-28
   27.3249550         4.20461562E-28
   27.4517479         8.01573150E-28
   27.5785408         1.27280396E-27
   27.7053337         1.83420715E-27
   27.8321266         2.48503935E-27
   27.9589195         3.22161742E-27
   28.0857124         4.02553601E-27
   28.2125034         4.88310216E-27
   28.3392963         5.74589874E-27
   28.4660892         6.55174558E-27
   28.5928822         7.19616174E-27
   28.7196751         7.52724296E-27
   28.8464680         7.35622424E-27
   28.9732609         6.46036483E-27
   29.1000538         4.59735232E-27
   29.2268448         1.52660551E-27
   29.3536377        -2.97104469E-27
   29.4804306        -9.05884800E-27
   29.6072235        -1.68121112E-26
   29.7340164        -2.61741860E-26
   29.8608093        -3.69262000E-26
   29.9876022        -4.86440631E-26
   30.1143932        -6.06762534E-26
   30.2411861        -7.21083640E-26
   30.3679790        -8.17597382E-26
   30.4947720        -8.81894723E-26
   30.6215649        -8.97266048E-26
   30.7483578        -8.45327384E-26
   30.8751507        -7.06979547E-26
   31.0019417        -4.63734934E-26
   31.1287346        -9.94352469E-27
   31.2555275         3.97682100E-26
   31.3823204         1.03264734E-25
   31.5091133         1.80118059E-25
   31.6359062         2.68708162E-25
   31.7626991         3.65974933E-25
   31.8894920         4.67209133E-25
   32.0162849         5.65909240E-25
   32.1430779         6.53735885E-25
   32.2698708         7.20597073E-25
   32.3966637         7.54891273E-25
   32.5234528         7.43942426E-25
   32.6502457         6.74641538E-25
   32.7770386         5.34307916E-25
   32.9038315         3.11763376E-25
   33.0306244        -1.40076833E-27
   33.1574173        -4.09406089E-25
   33.2842102        -9.10781429E-25
   33.4110031        -1.49685390E-24
   33.5377960        -2.15034687E-24
   33.6645889        -2.84421492E-24
   33.7913818        -3.54086489E-24
   33.9181747        -4.19192363E-24
   34.0449677        -4.73871152E-24
   34.1717606        -5.11357940E-24
   34.2985535        -5.24223749E-24
   34.4253426        -5.04716796E-24
   34.5521355        -4.45216371E-24
   34.6789284        -3.38796116E-24
   34.8057213        -1.79885865E-24
   34.9325142         3.49892204E-25
   35.0593071         3.06423631E-24
   35.1861000         6.31342698E-24
   35.3128929         1.00226277E-23
   35.4396858         1.40666348E-23
   35.5664787         1.82653990E-23
   35.6932716         2.23821296E-23
   35.8200645         2.61246829E-23
   35.9468575         2.91509948E-23
   36.0736504         3.10791380E-23
   36.2004433         3.15024471E-23
   36.3272324         3.00099286E-23
   36.4540253         2.62119089E-23
   36.5808182         1.97704162E-23
   36.7076111         1.04335248E-23
   36.8344040        -1.92769660E-24
   36.9611969        -1.72813597E-23
   37.0879898        -3.53982525E-23
   37.2147827        -5.58193559E-23
   37.3415756        -7.78302665E-23
   37.4683685        -1.00445773E-22
   37.5951614        -1.22407875E-22
   37.7219543        -1.42200319E-22
   37.8487473        -1.58082563E-22
   37.9755402        -1.68145349E-22
   38.1023293        -1.70389311E-22
   38.2291222        -1.62826773E-22
   38.3559151        -1.43605931E-22
   38.4827080        -1.11154376E-22
   38.6095009        -6.43378483E-23
   38.7362938        -2.62769666E-24
   38.8630867         7.37310233E-23
   38.9898796         1.63560767E-22
   39.1166725         2.64613785E-22
   39.2434654         3.73467705E-22
   39.3702583         4.85468434E-22
   39.4970512         5.94733419E-22
   39.6238441         6.94227687E-22
   39.7506371         7.75924899E-22
   39.8774300         8.31060092E-22
   40.0042191         8.50480711E-22
   40.1310120         8.25094536E-22
   40.2578049         7.46410495E-22
   40.3845978         6.07158950E-22
   40.5113907         4.01973553E-22
   40.6381836         1.28108411E-22
   40.7649765        -2.13844515E-22
   40.8917694        -6.19277167E-22
   41.0185623        -1.07897381E-21
   41.1453552        -1.57865784E-21
   41.2721481        -2.09873089E-21
   41.3989410        -2.61425848E-21
   41.5257339        -3.09525351E-21
   41.6525269        -3.50730275E-21
   41.7793198        -3.81257238E-21
   41.9061089        -3.97121173E-21
   42.0329018        -3.94316190E-21
   42.1596947        -3.69034231E-21
   42.2864876        -3.17918225E-21
   42.4132805        -2.38341552E-21
   42.5400734        -1.28704446E-21
   42.6668663         1.12661341E-22
   42.7936592         1.80228640E-21
   42.9204521         3.74969736E-21
   43.0472450         5.90197770E-21
   43.1740379         8.18408701E-21
   43.3008308         1.04984584E-20
   43.4276237         1.27257537E-20
   43.5544167         1.47269556E-20
   43.6812096         1.63469565E-20
   43.8079987         1.74197387E-20
   43.9347916         1.77752002E-20
   44.0615845         1.72475510E-20
   44.1883774         1.56851523E-20
   44.3151703         1.29615599E-20
   44.4419632         8.98737875E-21
   44.5687561         3.72248199E-21
   44.6955490        -2.81202372E-21
   44.8223419        -1.05227730E-20
   44.9491348        -1.92348331E-20
   45.0759277        -2.86849596E-20
   45.2027206        -3.85182695E-20
   45.3295135        -4.82892047E-20
   45.4563065        -5.74675006E-20
   45.5830994        -6.54499034E-20
   45.7098885        -7.15780387E-20
   45.8366814        -7.51626905E-20
   45.9634743        -7.55144232E-20
   46.0902672        -7.19801583E-20
   46.2170601        -6.39847727E-20
   46.3438530        -5.10766515E-20
   46.4706459        -3.29752643E-20
   46.5974388        -9.61883825E-21
   46.7242317         1.87905256E-20
   46.8510246         5.17471590E-20
   46.9778175         8.84106859E-20
   47.1046104         1.27586664E-19
   47.2314034         1.67722346E-19
   47.3581963         2.06920458E-19
   47.4849892         2.42973784E-19
   47.6117783         2.73422509E-19
   47.7385712         2.95635359E-19
   47.8653641         3.06914975E-19
   47.9921570         3.04626063E-19
   48.1189499         2.86344053E-19
   48.2457428         2.50019760E-19
   48.3725357         1.94154761E-19
   48.4993286         1.17979982E-19
   48.6261215         2.16286194E-20
   48.7529144        -9.37065741E-20
   48.8797073        -2.25642618E-19
   49.0065002        -3.70513919E-19
   49.1332932        -5.23329928E-19
   49.2600861        -6.77793810E-19
   49.3868790        -8.26391482E-19
   49.5136681        -9.60560178E-19
   49.6404610        -1.07093937E-18
   49.7672539        -1.14770845E-18
   49.8940468        -1.18100598E-18
   50.0208397        -1.16142403E-18
   50.1476326        -1.08056671E-18
   50.2744255        -9.31651249E-19
   50.4012184        -7.10132333E-19
   50.5280113        -4.14318096E-19
   50.6548042        -4.59468425E-20
   50.7815971         3.89312814E-19
   50.9083900         8.81476438E-19
   51.0351830         1.41601161E-18
   51.1619759         1.97379749E-18
   51.2887688         2.53130895E-18
   51.4155579         3.06105217E-18
   51.5423508         3.53227546E-18
   51.6691437         3.91195839E-18
   51.7959366         4.16607820E-18
   51.9227295         4.26113531E-18
   52.0495224         4.16589994E-18
   52.1763153         3.85332948E-18
   52.3031082         3.30258746E-18
   52.4299011         2.50107943E-18
   52.5566940         1.44640388E-18
   52.6834869         1.48111225E-19
   52.8102798        -1.37085024E-18
   52.9370728        -3.07312404E-18
   53.0638657        -4.90648260E-18
   53.1906586        -6.80402707E-18
   53.3174477        -8.68514166E-18
   53.4442406        -1.04572653E-17
   53.5710335        -1.20185215E-17
   53.6978264        -1.32612157E-17
   53.8246193        -1.40761457E-17
   53.9514122        -1.43576419E-17
   54.0782051        -1.40092053E-17
   54.2049980        -1.29495464E-17
   54.3317909        -1.11187997E-17
   54.4585838        -8.48461902E-18
   54.5853767        -5.04786886E-18
   54.7121696        -8.47538768E-19
   54.8389626         4.03544363E-18
   54.9657555         9.47585519E-18
   55.0925484         1.53036106E-17
   55.2193375         2.13052460E-17
   55.3461304         2.72277087E-17
   55.4729233         3.27845591E-17
   55.5997162         3.76646898E-17
   55.7265091         4.15434059E-17
   55.8533020         4.40957676E-17
   55.9800949         4.50117973E-17
   56.1068878         4.40131290E-17
   56.2336807         4.08704746E-17
   56.3604736         3.54212139E-17
   56.4872665         2.75862567E-17
   56.6140594         1.73853281E-17
   56.7408524         4.94967053E-18
   56.8676453        -9.46872158E-18
   56.9944382        -2.54922755E-17
   57.1212273        -4.26182278E-17
   57.2480202        -6.02248896E-17
   57.3748131        -7.75843071E-17
   57.5016060        -9.38814724E-17
   57.6283989        -1.08240163E-16
   57.7551918        -1.19755014E-16
   57.8819847        -1.27529016E-16
   58.0087776        -1.30715673E-16
   58.1355705        -1.28564024E-16
   58.2623634        -1.20465290E-16
   58.3891563        -1.05998782E-16
   58.5159492        -8.49750666E-17
   58.6427422        -5.74739847E-17
   58.7695351        -2.38750712E-17
   58.8963280         1.51217864E-17
   59.0231171         5.84878301E-17
   59.1499100         1.04870851E-16
   59.2767029         1.52615802E-16
   59.4034958         1.99801970E-16
   59.5302887         2.44296240E-16
   59.6570816         2.83822953E-16
   59.7838745         3.16048057E-16
   59.9106674         3.38676145E-16
   60.0374603         3.49557474E-16
   60.1642532         3.46800488E-16
   60.2910461         3.28886509E-16
   60.4178391         2.94780701E-16
   60.5446320         2.44034242E-16
   60.6714249         1.76872100E-16
   60.7982178         9.42607447E-17
   60.9250069        -2.04964623E-18
   61.0517998        -1.09512929E-16
   61.1785927        -2.24809188E-16
   61.3053856        -3.43903370E-16
   61.4321785        -4.62142394E-16
   61.5589714        -5.74390459E-16
   61.6857643        -6.75200614E-16
   61.8125572        -7.59018495E-16
   61.9393501        -8.20413084E-16
   62.0661430        -8.54326695E-16
   62.1929359        -8.56335592E-16
   62.3197289        -8.22909608E-16
   62.4465218        -7.51660637E-16
   62.5733147        -6.41566312E-16
   62.7001076        -4.93157246E-16
   62.8268967        -3.08655391E-16
   62.9536896        -9.20525629E-17
   63.0804825         1.50880814E-16
   63.2072754         4.12663811E-16
   63.3340683         6.84255079E-16
   63.4608612         9.55285558E-16
   63.5876541         1.21437356E-15
   63.7144470         1.44951425E-15
   63.8412399         1.64853491E-15
   63.9680328         1.79960218E-15
   64.0948257         1.89176465E-15
   64.2216187         1.91550635E-15
   64.3484116         1.86329545E-15
   64.4752045         1.73009402E-15
   64.6019974         1.51381104E-15
   64.7287903         1.21566846E-15
   64.8555832         8.40457219E-16
   64.9823761         3.96661956E-16
   65.1091690        -1.03562986E-16
   65.2359619        -6.44579367E-16
   65.3627548        -1.20761932E-15
   65.4895477        -1.77130768E-15
   65.6163330        -2.31234468E-15
   65.7431259        -2.80633281E-15
   65.8699188        -3.22872696E-15
   65.9967117        -3.55587184E-15
   66.1235046        -3.76609568E-15
   66.2502975        -3.84080949E-15
   66.3770905        -3.76557009E-15
   66.5038834        -3.53105674E-15
   66.6306763        -3.13390650E-15
   66.7574692        -2.57736011E-15
   66.8842621        -1.87168002E-15
   67.0110550        -1.03429510E-15
   67.1378479        -8.96454540E-17
   67.2646408         9.31289961E-16
   67.3914337         1.99179268E-15
   67.5182266         3.05051737E-15
   67.6450195         4.06290365E-15
   67.7718124         4.98284114E-15
   67.8986053         5.76454117E-15
   68.0253983         6.36454585E-15
   68.1521912         6.74380485E-15
   68.2789841         6.86972011E-15
   68.4057770         6.71808173E-15
   68.5325699         6.27478662E-15
   68.6593628         5.53725851E-15
   68.7861557         4.51547038E-15
   68.9129486         3.23249944E-15
   69.0397415         1.72455410E-15
   69.1665344         4.04180597E-17
   69.2933273        -1.75970047E-15
   69.4201126        -3.60591497E-15
   69.5469055        -5.42097613E-15
   69.6736984        -7.12309985E-15
   69.8004913        -8.62921761E-15
   69.9272842        -9.85854617E-15
   70.0540771        -1.07363501E-14
   70.1808701        -1.11977281E-14
   70.3076630        -1.11912729E-14
   70.4344559        -1.06824390E-14
   70.5612488        -9.65641361E-15
   70.6880417        -8.12037188E-15
   70.8148346        -6.10491966E-15
   70.9416275        -3.66463257E-15
   71.0684204        -8.77569332E-16
   71.1952133         2.15629474E-15
   71.3220062         5.31772282E-15
   71.4487991         8.47194985E-15
   71.5755920         1.14733975E-14
   71.7023849         1.41712746E-14
   71.8291779         1.64158424E-14
   71.9559708         1.80651782E-14
   72.0827637         1.89921338E-14
   72.2095566         1.90912468E-14
   72.3363495         1.82852695E-14
   72.4631424         1.65309982E-14
   72.5899353         1.38241283E-14
   72.7167282         1.02027931E-14
   72.8435211         5.74958934E-15
   72.9703140         5.91810115E-16
   73.0971069        -5.10020984E-15
   73.2238922        -1.11167679E-14
   73.3506851        -1.72144590E-14
   73.4774780        -2.31237758E-14
   73.6042709        -2.85584781E-14
   73.7310638        -3.32264598E-14
   73.8578568        -3.68418065E-14
   73.9846497        -3.91376147E-14
   74.1114426        -3.98790837E-14
   74.2382355        -3.88764067E-14
   74.3650284        -3.59968403E-14
   74.4918213        -3.11754508E-14
   74.6186142        -2.44239308E-14
   74.7454071        -1.58370089E-14
   74.8722000        -5.59595916E-15
   74.9989929         6.03112446E-15
   75.1257858         1.86926060E-14
   75.2525787         3.19602404E-14
   75.3793716         4.53398204E-14
   75.5061646         5.82853671E-14
   75.6329575         7.02166122E-14
   75.7597504         8.05392943E-14
   75.8865433         8.86676935E-14
   76.0133362         9.40487583E-14
   76.1401291         9.61868863E-14
   76.2669220         9.46685289E-14
   76.3937149         8.91855898E-14
   76.5205078         7.95566887E-14
   76.6473007         6.57451998E-14
   76.7740936         4.78732586E-14
   76.9008865         2.62307096E-14
   77.0276718         1.27850602E-15
   77.1544647        -2.63541969E-14
   77.2812576        -5.58794852E-14
   77.4080505        -8.63668539E-14
   77.5348434        -1.16765999E-13
   77.6616364        -1.45935821E-13
   77.7884293        -1.72679064E-13
   77.9152222        -1.95781678E-13
   78.0420151        -2.14055973E-13
   78.1688080        -2.26385913E-13
   78.2956009        -2.31773422E-13
   78.4223938        -2.29383949E-13
   78.5491867        -2.18589415E-13
   78.6759796        -1.99007247E-13
   78.8027725        -1.70533496E-13
   78.9295654        -1.33368455E-13
   79.0563583        -8.80335572E-14
   79.1831512        -3.53782453E-14
   79.3099442         2.34241236E-14
   79.4367371         8.68918517E-14
   79.5635300         1.53262372E-13
   79.6903229         2.20531086E-13
   79.8171158         2.86501562E-13
   79.9439087         3.48845491E-13
   80.0707016         4.05171475E-13
   80.1974945         4.53100529E-13
   80.3242874         4.90346641E-13
   80.4510803         5.14799683E-13
   80.5778732         5.24607972E-13
   80.7046585         5.18257854E-13
   80.8314514         4.94647780E-13
   80.9582443         4.53153411E-13
   81.0850372         3.93681886E-13
   81.2118301         3.16712097E-13
   81.3386230         2.23319234E-13
   81.4654160         1.15181600E-13
   81.5922089        -5.43133111E-15
   81.7190018        -1.35690694E-13
   81.8457947        -2.72259483E-13
   81.9725876        -4.11363814E-13
   82.0993805        -5.48881687E-13
   82.2261734        -6.80448644E-13
   82.3529663        -8.01577934E-13
   82.4797592        -9.07791203E-13
   82.6065521        -9.94757445E-13
   82.7333450        -1.05843600E-12
   82.8601379        -1.09521864E-12
   82.9869308        -1.10206787E-12
   83.1137238        -1.07664507E-12
   83.2405167        -1.01742616E-12
   83.3673096        -9.23798256E-13
   83.4941025        -7.96135076E-13
   83.6208954        -6.35846844E-13
   83.7476883        -4.45401935E-13
   83.8744812        -2.28318178E-13
   84.0012741         1.08779825E-14
   84.1280670         2.66724224E-13
   84.2548599         5.32927272E-13
   84.3816528         8.02498259E-13
   84.5084381         1.06791615E-12
   84.6352310         1.32131545E-12
   84.7620239         1.55469507E-12
   84.8888168         1.76014195E-12
   85.0156097         1.93006440E-12
   85.1424026         2.05742910E-12
   85.2691956         2.13599255E-12
   85.3959885         2.16052523E-12
   85.5227814         2.12701536E-12
   85.6495743         2.03284872E-12
   85.7763672         1.87695887E-12
   85.9031601         1.65993955E-12
   86.0299530         1.38411580E-12
   86.1567459         1.05356880E-12
   86.2835388         6.74112838E-13
   86.4103317         2.53222004E-13
   86.5371246        -2.00093794E-13
   86.6639175        -6.75462344E-13
   86.7907104        -1.16136766E-12
   86.9175034        -1.64541189E-12
   87.0442963        -2.11461274E-12
   87.1710892        -2.55573058E-12
   87.2978821        -2.95561796E-12
   87.4246750        -3.30157906E-12
   87.5514679        -3.58173539E-12
   87.6782608        -3.78538000E-12
   87.8050537        -3.90331560E-12
   87.9318466        -3.92816725E-12
   88.0586395        -3.85465097E-12
   88.1854324        -3.67980212E-12
   88.3122177        -3.40314344E-12
   88.4390106        -3.02679626E-12
   88.5658035        -2.55552263E-12
   88.6925964        -1.99669990E-12
   88.8193893        -1.36022194E-12
   88.9461823        -6.58332872E-13
   89.0729752         9.46069124E-14
   89.1997681         8.82418812E-13
   89.3265610         1.68745757E-12
   89.4533539         2.49101174E-12
   89.5801468         3.27374022E-12
   89.7069397         4.01613682E-12
   89.8337326         4.69900421E-12
   89.9605255         5.30393394E-12
   90.0873184         5.81377307E-12
   90.2141113         6.21306652E-12
   90.3409042         6.48845864E-12
   90.4676971         6.62905538E-12
   90.5944901         6.62672521E-12
   90.7212830         6.47633423E-12
   90.8480759         6.17591308E-12
   90.9748688         5.72674677E-12
   91.1016617         5.13339111E-12
   91.2284546         4.40360986E-12
   91.3552475         3.54824308E-12
   91.4820404         2.58100355E-12
   91.6088333         1.51821470E-12
   91.7356262         3.78493786E-13
   91.8624191        -8.17608297E-13
   91.9892120        -2.04800044E-12
   92.1159973        -3.28946852E-12
   92.2427902        -4.51810247E-12
   92.3695831        -5.70972826E-12
   92.4963760        -6.84033082E-12
   92.6231689        -7.88646058E-12
   92.7499619        -8.82561819E-12
   92.8767548        -9.63661616E-12
   93.0035477        -1.02998955E-11
   93.1303406        -1.07978270E-11
   93.2571335        -1.11149666E-11
   93.3839264        -1.12382820E-11
   93.5107193        -1.11573563E-11
   93.6375122        -1.08645567E-11
   93.7643051        -1.03551863E-11
   93.8910980        -9.62761901E-12
   94.0178909        -8.68341857E-12
   94.1446838        -7.52744395E-12
   94.2714767        -6.16795027E-12
   94.3982697        -4.61667466E-12
   94.5250626        -2.88890851E-12
   94.6518555        -1.00355748E-12
   94.7786484         1.01682660E-12
   94.9054413         3.14604549E-12
   95.0322342         5.35429513E-12
   95.1590271         7.60826298E-12
   95.2858200         9.87129128E-12
   95.4126129         1.21036219E-11
   95.5394058         1.42627394E-11
   95.6661987         1.63038003E-11
   95.7929916         1.81802004E-11
   95.9197769         1.98442460E-11
   96.0465698         2.12479530E-11
   96.1733627         2.23439670E-11
   96.3001556         2.30865847E-11
   96.4269485         2.34328962E-11
   96.5537415         2.33439847E-11
   96.6805344         2.27862052E-11
   96.8073273         2.17324700E-11
   96.9341202         2.01635392E-11
   97.0609131         1.80692596E-11
   97.1877060         1.54497075E-11
   97.3144989         1.23162079E-11
   97.4412918         8.69216071E-12
   97.5680847         4.61366145E-12
   97.6948776         1.29832234E-13
   97.8216705        -4.69712247E-12
   97.9484634        -9.79221478E-12
   98.0752563        -1.50683042E-11