  -4.50000000         0.00000000    
  -4.37320757         0.00000000    
  -4.24641466         0.00000000    
  -4.11962223         0.00000000    
  -3.99282932         0.00000000    
  -3.86603665         0.00000000    
  -3.73924398         0.00000000    
  -3.61245155         0.00000000    
  -3.48565888         0.00000000    
  -3.35886621         0.00000000    
  -3.23207355         0.00000000    
  -3.10528088         0.00000000    
  -2.97848821         0.00000000    
  -2.85169554         0.00000000    
  -2.72490287         0.00000000    
  -2.59811020         0.00000000    
  -2.47131753         0.00000000    
  -2.34452486         0.00000000    
  -2.21773219         0.00000000    
  -2.09093952         0.00000000    
  -1.96414697         0.00000000    
  -1.83735430         0.00000000    
  -1.71056163         0.00000000    
  -1.58376896         0.00000000    
  -1.45697629         0.00000000    
  -1.33018374         0.00000000    
  -1.20339108         0.00000000    
  -1.07659841         0.00000000    
 -0.949805737         0.00000000    
 -0.823013067         0.00000000    
 -0.696220458         0.00000000    
 -0.569427788         0.00000000    
 -0.442635119         0.00000000    
 -0.315842479         0.00000000    
 -0.189049825         0.00000000    
  -6.22571707E-02     0.00000000    
   6.45354837E-02     0.00000000    
  0.191328138         0.00000000    
  0.318120778         0.00000000    
  0.444913447         0.00000000    
  0.571706116         0.00000000    
  0.698498726         0.00000000    
  0.825291395         0.00000000    
  0.952084064         0.00000000    
   1.07887673         0.00000000    
   1.20566940         0.00000000    
   1.33246195         0.00000000    
   1.45925462         0.00000000    
   1.58604729         0.00000000    
   1.71283996         0.00000000    
   1.83963263         0.00000000    
   1.96642530         0.00000000    
   2.09321785         0.00000000    
   2.22001052         0.00000000    
   2.34680319         0.00000000    
   2.47359586         0.00000000    
   2.60038853         0.00000000    
   2.72718120         0.00000000    
   2.85397387         0.00000000    
   2.98076653         0.00000000    
   3.10755920         0.00000000    
   3.23435187         0.00000000    
   3.36114454         0.00000000    
   3.48793697         0.00000000    
   3.61472964         0.00000000    
   3.74152231         0.00000000    
   3.86831498         0.00000000    
   3.99510765         0.00000000    
   4.12190056         0.00000000    
   4.24869299         0.00000000    
   4.37548542         0.00000000    
   4.50227833         0.00000000    
   4.62907076         0.00000000    
   4.75586367         0.00000000    
   4.88265610         0.00000000    
   5.00944901         0.00000000    
   5.13624144         0.00000000    
   5.26303434         0.00000000    
   5.38982677         0.00000000    
   5.51661968         0.00000000    
   5.64341211         0.00000000    
   5.77020502         0.00000000    
   5.89699745         0.00000000    
   6.02379036         0.00000000    
   6.15058279         0.00000000    
   6.27737522         0.00000000    
   6.40416813         0.00000000    
   6.53096056         0.00000000    
   6.65775347         0.00000000    
   6.78454590         0.00000000    
   6.91133881         0.00000000    
   7.03813124         0.00000000    
   7.16492414         0.00000000    
   7.29171658         0.00000000    
   7.41850948         0.00000000    
   7.54530191         0.00000000    
   7.67209482         0.00000000    
   7.79888725         0.00000000    
   7.92567968         0.00000000    
   8.05247211         0.00000000    
   8.17926502         0.00000000    
   8.30605793         0.00000000    
   8.43285084         0.00000000    
   8.55964279         0.00000000    
   8.68643570         0.00000000    
   8.81322861         0.00000000    
   8.94002151         0.00000000    
   9.06681347         0.00000000    
   9.19360638         0.00000000    
   9.32039928         0.00000000    
   9.44719219         0.00000000    
   9.57398415         0.00000000    
   9.70077705         0.00000000    
   9.82756996         0.00000000    
   9.95436192         0.00000000    
   10.0811548         0.00000000    
   10.2079477         0.00000000    
   10.3347406         0.00000000    
   10.4615326         0.00000000    
   10.5883255         0.00000000    
   10.7151184         0.00000000    
   10.8419113         0.00000000    
   10.9687033         0.00000000    
   11.0954962         0.00000000    
   11.2222891         0.00000000    
   11.3490820         0.00000000    
   11.4758739         0.00000000    
   11.6026669         0.00000000    
   11.7294598         0.00000000    
   11.8562517         0.00000000    
   11.9830446         0.00000000    
   12.1098375         0.00000000    
   12.2366304         0.00000000    
   12.3634224         0.00000000    
   12.4902153         0.00000000    
   12.6170082         0.00000000    
   12.7438011         0.00000000    
   12.8705931         0.00000000    
   12.9973860         0.00000000    
   13.1241789         0.00000000    
   13.2509708         0.00000000    
   13.3777637         0.00000000    
   13.5045567         0.00000000    
   13.6313496         0.00000000    
   13.7581415         0.00000000    
   13.8849344         0.00000000    
   14.0117273         0.00000000    
   14.1385202         0.00000000    
   14.2653122         0.00000000    
   14.3921051         0.00000000    
   14.5188980         0.00000000    
   14.6456909         0.00000000    
   14.7724829         0.00000000    
   14.8992758         0.00000000    
   15.0260687         0.00000000    
   15.1528606         0.00000000    
   15.2796535         0.00000000    
   15.4064465         0.00000000    
   15.5332394         0.00000000    
   15.6600313         0.00000000    
   15.7868242         0.00000000    
   15.9136171         0.00000000    
   16.0404091         0.00000000    
   16.1672020         0.00000000    
   16.2939949         0.00000000    
   16.4207878         0.00000000    
   16.5475807         0.00000000    
   16.6743736         0.00000000    
   16.8011646         0.00000000    
   16.9279575         0.00000000    
   17.0547504         0.00000000    
   17.1815434         0.00000000    
   17.3083363         0.00000000    
   17.4351292         0.00000000    
   17.5619221         0.00000000    
   17.6887150         0.00000000    
   17.8155060         0.00000000    
   17.9422989         0.00000000    
   18.0690918         0.00000000    
   18.1958847         0.00000000    
   18.3226776         0.00000000    
   18.4494705         0.00000000    
   18.5762634         0.00000000    
   18.7030544         0.00000000    
   18.8298473         0.00000000    
   18.9566402         0.00000000    
   19.0834332        -5.77053161E-35
   19.2102261        -2.36412715E-34
   19.3370190        -4.15120090E-34
   19.4638119        -5.39300232E-34
   19.5906048        -6.41426217E-34
   19.7173958        -9.67784499E-34
   19.8441887        -1.55904034E-33
   19.9709816        -2.06336048E-33
   20.0977745        -1.80013258E-33
   20.2245674        -5.81396521E-35
   20.3513603         2.26813068E-33
   20.4781532         4.17102644E-33
   20.6049442         5.13914743E-33
   20.7317371         4.81290256E-33
   20.8585300         1.63362344E-33
   20.9853230        -6.81182813E-34
   21.1121159        -1.45423602E-33
   21.2389088        -3.28478782E-33
   21.3657017        -3.01247565E-34
   21.4924946         1.24089944E-32
   21.6192856         3.21076408E-32
   21.7460785         4.22052724E-32
   21.8728714         3.00355998E-32
   21.9996643         7.15074813E-33
   22.1264572        -1.98096012E-32
   22.2532501        -2.64518584E-32
   22.3800430        -1.37237555E-32
   22.5068340        -8.55054826E-32
   22.6336269         4.50968204E-31
   22.7604198         1.22564799E-30
   22.8872128         2.02365641E-30
   23.0140057         3.20226930E-30
   23.1407986         4.56970890E-30
   23.2675915         6.76070022E-30
   23.3943844         9.24236176E-30
   23.5211754         1.19581389E-29
   23.6479683         1.35918458E-29
   23.7747612         1.58852643E-29
   23.9015541         1.87261027E-29
   24.0283470         2.06111443E-29
   24.1551399         2.68415623E-29
   24.2819328         4.97559638E-29
   24.4087238         9.21078163E-29
   24.5355167         1.43168468E-28
   24.6623096         1.96079999E-28
   24.7891026         2.49973549E-28
   24.9158955         2.90994028E-28
   25.0426884         3.12608354E-28
   25.1694813         3.12723982E-28
   25.2962742         2.98503156E-28
   25.4230652         2.64028071E-28
   25.5498581         2.15239547E-28
   25.6766510         1.56518557E-28
   25.8034439         6.79894437E-29
   25.9302368        -7.23264634E-29
   26.0570297        -3.03530652E-28
   26.1838226        -6.11223046E-28
   26.3106136        -9.88855730E-28
   26.4374065        -1.43270603E-27
   26.5641994        -1.90966913E-27
   26.6909924        -2.38169183E-27
   26.8177853        -2.81297707E-27
   26.9445782        -3.17668470E-27
   27.0713711        -3.44708604E-27
   27.1981640        -3.58565631E-27
   27.3249550        -3.54056413E-27
   27.4517479        -3.23257172E-27
   27.5785408        -2.57825590E-27
   27.7053337        -1.49043828E-27
   27.8321266         1.10128755E-28
   27.9589195         2.28097070E-27
   28.0857124         5.03909054E-27
   28.2125034         8.35360712E-27
   28.3392963         1.21289452E-26
   28.4660892         1.62178308E-26
   28.5928822         2.03977490E-26
   28.7196751         2.43785861E-26
   28.8464680         2.78106872E-26
   28.9732609         3.02666547E-26
   29.1000538         3.12514119E-26
   29.2268448         3.02087720E-26
   29.3536377         2.65450493E-26
   29.4804306         1.96727673E-26
   29.6072235         9.06199189E-27
   29.7340164        -5.68568146E-27
   29.8608093        -2.47674807E-26
   29.9876022        -4.81008892E-26
   30.1143932        -7.52381450E-26
   30.2411861        -1.05312524E-25
   30.3679790        -1.36972840E-25
   30.4947720        -1.68348908E-25
   30.6215649        -1.97024716E-25
   30.7483578        -2.20047868E-25
   30.8751507        -2.33978265E-25
   31.0019417        -2.34997276E-25
   31.1287346        -2.19080577E-25
   31.2555275        -1.82248057E-25
   31.3823204        -1.20884404E-25
   31.5091133        -3.21313739E-26
   31.6359062         8.56712865E-26
   31.7626991         2.32508444E-25
   31.8894920         4.06208565E-25
   32.0162849         6.01986857E-25
   32.1430779         8.12052578E-25
   32.2698708         1.02532640E-24
   32.3966637         1.22731443E-24
   32.5234528         1.40019497E-24
   32.6502457         1.52317484E-24
   32.7770386         1.57317038E-24
   32.9038315         1.52585214E-24
   33.0306244         1.35708067E-24
   33.1574173         1.04472636E-24
   33.2842102         5.70842036E-25
   33.4110031        -7.58813255E-26
   33.5377960        -8.97481431E-25
   33.6645889        -1.88405721E-24
   33.7913818        -3.01124912E-24
   33.9181747        -4.23809250E-24
   34.0449677        -5.50549142E-24
   34.1717606        -6.73558865E-24
   34.2985535        -7.83231278E-24
   34.4253426        -8.68338168E-24
   34.5521355        -9.16398414E-24
   34.6789284        -9.14233149E-24
   34.8057213        -8.48715411E-24
   34.9325142        -7.07709679E-24
   35.0593071        -4.81183616E-24
   35.1861000        -1.62453873E-24
   35.3128929         2.50486510E-24
   35.4396858         7.53634874E-24
   35.5664787         1.33572989E-23
   35.6932716         1.97719892E-23
   35.8200645         2.64942059E-23
   35.9468575         3.31443854E-23
   36.0736504         3.92525070E-23
   36.2004433         4.42679931E-23
   36.3272324         4.75776527E-23
   36.4540253         4.85323195E-23
   36.5808182         4.64825181E-23
   36.7076111         4.08227693E-23
   36.8344040         3.10436078E-23
   36.9611969         1.67894970E-23
   37.0879898        -2.07983217E-24
   37.2147827        -2.54281992E-23
   37.3415756        -5.27859775E-23
   37.4683685        -8.33023295E-23
   37.5951614        -1.15711998E-22
   37.7219543        -1.48322258E-22
   37.8487473        -1.79025886E-22
   37.9755402        -2.05344772E-22
   38.1023293        -2.24508829E-22
   38.2291222        -2.33572349E-22
   38.3559151        -2.29569176E-22
   38.4827080        -2.09704535E-22
   38.6095009        -1.71579241E-22
   38.7362938        -1.13438665E-22
   38.8630867        -3.44350754E-23
   38.9898796         6.51108121E-23
   39.1166725         1.83466567E-22
   39.2434654         3.17283365E-22
   39.3702583         4.61451671E-22
   39.4970512         6.09040453E-22
   39.6238441         7.51341873E-22
   39.7506371         8.78041113E-22
   39.8774300         9.77529272E-22
   40.0042191         1.03736648E-21
   40.1310120         1.04490138E-21
   40.2578049         9.88036747E-22
   40.3845978         8.56125270E-22
   40.5113907         6.40963849E-22
   40.6381836         3.37843933E-22
   40.7649765        -5.33976476E-23
   40.8917694        -5.27394334E-22
   41.0185623        -1.07241008E-21
   41.1453552        -1.66972617E-21
   41.2721481        -2.29334108E-21
   41.3989410        -2.91006865E-21
   41.5257339        -3.48010636E-21
   41.6525269        -3.95813920E-21
   41.7793198        -4.29501860E-21
   41.9061089        -4.44002078E-21
   42.0329018        -4.34366878E-21
   42.1596947        -3.96105332E-21
   42.2864876        -3.25553954E-21
   42.4132805        -2.20271553E-21
   42.5400734        -7.94383992E-22
   42.6668663         9.57647150E-22
   42.7936592         3.01824170E-21
   42.9204521         5.32637550E-21
   43.0472450         7.79365292E-21
   43.1740379         1.03041929E-20
   43.3008308         1.27161635E-20
   43.4276237         1.48651836E-20
   43.5544167         1.65697605E-20
   43.6812096         1.76387945E-20
   43.8079987         1.78811294E-20
   43.9347916         1.71169357E-20
   44.0615845         1.51906130E-20
   44.1883774         1.19846960E-20
   44.3151703         7.43415732E-21
   44.4419632         1.54031138E-21
   44.5687561        -5.61657211E-21
   44.6955490        -1.38669446E-20
   44.8223419        -2.29449401E-20
   44.9491348        -3.24856962E-20
   45.0759277        -4.20279322E-20
   45.2027206        -5.10226004E-20
   45.3295135        -5.88482848E-20
   45.4563065        -6.48335246E-20
   45.5830994        -6.82861700E-20
   45.7098885        -6.85292448E-20
   45.8366814        -6.49424152E-20
   45.9634743        -5.70076528E-20
   46.0902672        -4.43573245E-20
   46.2170601        -2.68222619E-20
   46.3438530        -4.47713364E-21
   46.4706459         2.23199195E-20
   46.5974388         5.28966783E-20
   46.7242317         8.62484875E-20
   46.8510246         1.21035368E-19
   46.9778175         1.55597326E-19
   47.1046104         1.87990184E-19
   47.2314034         2.16043394E-19
   47.3581963         2.37440282E-19
   47.4849892         2.49820022E-19
   47.6117783         2.50899622E-19
   47.7385712         2.38612009E-19
   47.8653641         2.11255867E-19
   47.9921570         1.67650291E-19
   48.1189499         1.07287458E-19
   48.2457428         3.04736989E-20
   48.3725357        -6.15498179E-20
   48.4993286        -1.66516976E-19
   48.6261215        -2.81086932E-19
   48.7529144        -4.00843867E-19
   48.8797073        -5.20354198E-19
   49.0065002        -6.33287254E-19
   49.1332932        -7.32603263E-19
   49.2600861        -8.10809157E-19
   49.3868790        -8.60278487E-19
   49.5136681        -8.73630733E-19
   49.6404610        -8.44155910E-19
   49.7672539        -7.66272357E-19
   49.8940468        -6.35997149E-19
   50.0208397        -4.51405799E-19
   50.1476326        -2.13057919E-19
   50.2744255         7.56409430E-20
   50.4012184         4.08168137E-19
   50.5280113         7.74731313E-19
   50.6548042         1.16226052E-18
   50.7815971         1.55456705E-18
   50.9083900         1.93268496E-18
   51.0351830         2.27540512E-18
   51.1619759         2.56000447E-18
   51.2887688         2.76315858E-18
   51.4155579         2.86202093E-18
   51.5423508         2.83543762E-18
   51.6691437         2.66525576E-18
   51.7959366         2.33767383E-18
   51.9227295         1.84457058E-18
   52.0495224         1.18474608E-18
   52.1763153         3.64999080E-19
   52.3031082        -5.99037117E-19
   52.4299011        -1.68237297E-18
   52.5566940        -2.85052705E-18
   52.6834869        -4.05983512E-18
   52.8102798        -5.25825108E-18
   52.9370728        -6.38667268E-18
   53.0638657        -7.38078702E-18
   53.1906586        -8.17343202E-18
   53.3174477        -8.69742364E-18
   53.4442406        -8.88876127E-18
   53.5710335        -8.69013618E-18
   53.6978264        -8.05459098E-18
   53.8246193        -6.94918155E-18
   53.9514122        -5.35847063E-18
   54.0782051        -3.28766264E-18
   54.2049980        -7.65180892E-19
   54.3317909         2.15550632E-18
   54.4585838         5.39499396E-18
   54.5853767         8.84814753E-18
   54.7121696         1.23855432E-17
   54.8389626         1.58562252E-17
   54.9657555         1.90918315E-17
   55.0925484         2.19120607E-17
   55.2193375         2.41313946E-17
   55.3461304         2.55669351E-17
   55.4729233         2.60471201E-17
   55.5997162         2.54210354E-17
   55.7265091         2.35679688E-17
   55.8533020         2.04067872E-17
   55.9800949         1.59047029E-17
   56.1068878         1.00849579E-17
   56.2336807         3.03290776E-18
   56.3604736        -5.09991424E-18
   56.4872665        -1.40942113E-17
   56.6140594        -2.36642013E-17
   56.7408524        -3.34620068E-17
   56.8676453        -4.30853731E-17
   56.9944382        -5.20887312E-17
   57.1212273        -5.99975737E-17
   57.2480202        -6.63257701E-17
   57.3748131        -7.05955838E-17
   57.5016060        -7.23596358E-17
   57.6283989        -7.12242212E-17
   57.7551918        -6.68730328E-17
   57.8819847        -5.90903022E-17
   58.0087776        -4.77823296E-17
   58.1355705        -3.29962049E-17
   58.2623634        -1.49346434E-17
   58.3891563         6.03419985E-18
   58.5159492         2.93728990E-17
   58.6427422         5.43778079E-17
   58.7695351         8.01896017E-17
   58.8963280         1.05811654E-16
   59.0231171         1.30136514E-16
   59.1499100         1.51980064E-16
   59.2767029         1.70122862E-16
   59.4034958         1.83357751E-16
   59.5302887         1.90542285E-16
   59.6570816         1.90654464E-16
   59.7838745         1.82849545E-16
   59.9106674         1.66515891E-16
   60.0374603         1.41327275E-16
   60.1642532         1.07288972E-16
   60.2910461         6.47753359E-17
   60.4178391         1.45558360E-17
   60.5446320        -4.21922530E-17
   60.6714249        -1.03886877E-16
   60.7982178        -1.68561330E-16
   60.9250069        -2.33902590E-16
   61.0517998        -2.97308062E-16
   61.1785927        -3.55960779E-16
   61.3053856        -4.06921510E-16
   61.4321785        -4.47235884E-16
   61.5589714        -4.74054165E-16
   61.6857643        -4.84759391E-16
   61.8125572        -4.77099990E-16
   61.9393501        -4.49321968E-16
   62.0661430        -4.00294642E-16
   62.1929359        -3.29624989E-16
   62.3197289        -2.37753837E-16
   62.4465218        -1.26028391E-16
   62.5733147         3.25410041E-18
   62.7001076         1.46836510E-16
   62.8268967         3.00530307E-16
   62.9536896         4.59284452E-16
   63.0804825         6.17296701E-16
   63.2072754         7.68167192E-16
   63.3340683         9.05092291E-16
   63.4608612         1.02109504E-15
   63.5876541         1.10928769E-15
   63.7144470         1.16315793E-15
   63.8412399         1.17686917E-15
   63.9680328         1.14556685E-15
   64.0948257         1.06567682E-15
   64.2216187         9.35182290E-16
   64.3484116         7.53868852E-16
   64.4752045         5.23521736E-16
   64.6019974         2.48063551E-16
   64.7287903        -6.63789942E-17
   64.8555832        -4.11490247E-16
   64.9823761        -7.76869820E-16
   65.1091690        -1.15023114E-15
   65.2359619        -1.51769585E-15
   65.3627548        -1.86418230E-15
   65.4895477        -2.17388232E-15
   65.6163330        -2.43081494E-15
   65.7431259        -2.61944558E-15
   65.8699188        -2.72534841E-15
   65.9967117        -2.73589228E-15
   66.1235046        -2.64092718E-15
   66.2502975        -2.43343651E-15
   66.3770905        -2.11013483E-15
   66.5038834        -1.67197369E-15
   66.6306763        -1.12453132E-15
   66.7574692        -4.78254390E-16
   66.8842621         2.51469312E-16
   67.0110550         1.04442805E-15
   67.1378479         1.87590883E-15
   67.2646408         2.71723066E-15
   67.3914337         3.53649067E-15
   67.5182266         4.29951086E-15
   67.6450195         4.97097082E-15
   67.7718124         5.51569729E-15
   67.8986053         5.90007279E-15
   68.0253983         6.09352072E-15
   68.1521912         6.07001555E-15
   68.2789841         5.80955292E-15
   68.4057770         5.29952474E-15
   68.5325699         4.53593089E-15
   68.6593628         3.52436052E-15
   68.7861557         2.28068470E-15
   68.9129486         8.31406989E-16
   69.0397415        -7.86383324E-16
   69.1665344        -2.52548167E-15
   69.2933273        -4.32949329E-15
   69.4201126        -6.13420583E-15
   69.5469055        -7.86941465E-15
   69.6736984        -9.46114711E-15
   69.8004913        -1.08342553E-14
   69.9272842        -1.19152862E-14
   70.0540771        -1.26355539E-14
   70.1808701        -1.29343100E-14
   70.3076630        -1.27618626E-14
   70.4344559        -1.20825633E-14
   70.5612488        -1.08774828E-14
   70.6880417        -9.14666919E-15
   70.8148346        -6.91084060E-15
   70.9416275        -4.21239946E-15
   71.0684204        -1.11566945E-15
   71.1952133         2.29372838E-15
   71.3220062         5.91041337E-15
   71.4487991         9.61170806E-15
   71.5755920         1.32610123E-14
   71.7023849         1.67120329E-14
   71.8291779         1.98137642E-14
   71.9559708         2.24160815E-14
   72.0827637         2.43757973E-14
   72.2095566         2.55629309E-14
   72.3363495         2.58670039E-14
   72.4631424         2.52030571E-14
   72.5899353         2.35171566E-14
   72.7167282         2.07911098E-14
   72.8435211         1.70461332E-14
   72.9703140         1.23452248E-14
   73.0971069         6.79406567E-15
   73.2238922         5.40257307E-16
   73.3506851        -6.22917982E-15
   73.4774780        -1.32921018E-14
   73.6042709        -2.03972971E-14
   73.7310638        -2.72722027E-14
   73.8578568        -3.36320768E-14
   73.9846497        -3.91904052E-14
   74.1114426        -4.36701693E-14
   74.2382355        -4.68156330E-14
   74.3650284        -4.84041586E-14
   74.4918213        -4.82575981E-14
   74.6186142        -4.62527728E-14
   74.7454071        -4.23304715E-14
   74.8722000        -3.65026070E-14
   74.9989929        -2.88569895E-14
   75.1257858        -1.95593799E-14
   75.2525787        -8.85257257E-15
   75.3793716         2.94773607E-15
   75.5061646         1.54603181E-14
   75.6329575         2.82489842E-14
   75.7597504         4.08361360E-14
   75.8865433         5.27189613E-14
   76.0133362         6.33877919E-14
   76.1401291         7.23460395E-14
   76.2669220         7.91309767E-14
   76.3937149         8.33346115E-14
   76.5205078         8.46237278E-14
   76.6473007         8.27582835E-14
   76.7740936         7.76072932E-14
   76.9008865         6.91612430E-14
   77.0276718         5.75404524E-14
   77.1544647         4.29987263E-14
   77.2812576         2.59217137E-14
   77.4080505         6.81985316E-15
   77.5348434        -1.36843170E-14
   77.6616364        -3.48741760E-14
   77.7884293        -5.59621116E-14
   77.9152222        -7.61169082E-14
   78.0420151        -9.44947517E-14
   78.1688080        -1.10272597E-13
   78.2956009        -1.22682843E-13
   78.4223938        -1.31047761E-13
   78.5491867        -1.34812436E-13
   78.6759796        -1.33574602E-13
   78.8027725        -1.27110006E-13
   78.9295654        -1.15391895E-13
   79.0563583        -9.86035120E-14
   79.1831512        -7.71426990E-14
   79.3099442        -5.16177609E-14
   79.4367371        -2.28344294E-14
   79.5635300         8.22622898E-15
   79.6903229         4.04383456E-14
   79.8171158         7.25697985E-14
   79.9439087         1.03327218E-13
   80.0707016         1.31406184E-13
   80.1974945         1.55544753E-13
   80.3242874         1.74578220E-13
   80.4510803         1.87492993E-13
   80.5778732         1.93476921E-13
   80.7046585         1.91964039E-13
   80.8314514         1.82671451E-13
   80.9582443         1.65626139E-13
   81.0850372         1.41180307E-13
   81.2118301         1.10013581E-13
   81.3386230         7.31216235E-14
   81.4654160         3.17904171E-14
   81.5922089        -1.24431427E-14
   81.7190018        -5.78435886E-14
   81.8457947        -1.02540521E-13
   81.9725876        -1.44601697E-13
   82.0993805        -1.82112639E-13
   82.2261734        -2.13260006E-13
   82.3529663        -2.36415136E-13
   82.4797592        -2.50214319E-13
   82.6065521        -2.53631724E-13
   82.7333450        -2.46042498E-13
   82.8601379        -2.27271123E-13
   82.9869308        -1.97623629E-13
   83.1137238        -1.57900535E-13
   83.2405167        -1.09388965E-13
   83.3673096        -5.38330536E-14
   83.4941025         6.61709042E-15
   83.6208954         6.94770982E-14
   83.7476883         1.32018731E-13
   83.8744812         1.91376063E-13
   84.0012741         2.44663908E-13
   84.1280670         2.89103810E-13
   84.2548599         3.22152922E-13
   84.3816528         3.41630017E-13
   84.5084381         3.45833415E-13
   84.6352310         3.33644408E-13
   84.7620239         3.04612238E-13
   84.8888168         2.59014598E-13
   85.0156097         1.97889895E-13
   85.1424026         1.23038529E-13
   85.2691956         3.69911689E-14
   85.3959885        -5.70563426E-14
   85.5227814        -1.55341641E-13
   85.6495743        -2.53664142E-13
   85.7763672        -3.47540735E-13
   85.9031601        -4.32383187E-13
   86.0299530        -5.03690676E-13
   86.1567459        -5.57250914E-13
   86.2835388        -5.89341239E-13
   86.4103317        -5.96920516E-13
   86.5371246        -5.77805111E-13
   86.6639175        -5.30818011E-13
   86.7907104        -4.55905062E-13
   86.9175034        -3.54210747E-13
   87.0442963        -2.28107138E-13
   87.1710892        -8.11738440E-14
   87.2978821         8.18746180E-14
   87.4246750         2.55314243E-13
   87.5514679         4.32585554E-13
   87.6782608         6.06514784E-13
   87.8050537         7.69573045E-13
   87.9318466         9.14165553E-13
   88.0586395         1.03294326E-12
   88.1854324         1.11912096E-12
   88.3122177         1.16679225E-12
   88.4390106         1.17122718E-12
   88.5658035         1.12913823E-12
   88.6925964         1.03890431E-12
   88.8193893         9.00738631E-13
   88.9461823         7.16791372E-13
   89.0729752         4.91180284E-13
   89.1997681         2.29942936E-13
   89.3265610        -5.90924133E-14
   89.4533539        -3.66515276E-13
   89.5801468        -6.81616168E-13
   89.7069397        -9.92738335E-13
   89.8337326        -1.28768990E-12
   89.9605255        -1.55419341E-12
   90.0873184        -1.78037142E-12
   90.2141113        -1.95523654E-12
   90.3409042        -2.06917274E-12
   90.4676971        -2.11438939E-12
   90.5944901        -2.08532323E-12
   90.7212830        -1.97897558E-12
   90.8480759        -1.79516168E-12
   90.9748688        -1.53666240E-12
   91.1016617        -1.20926554E-12
   91.2284546        -8.21688800E-13
   91.3552475        -3.85382725E-13
   91.4820404         8.57848948E-14
   91.6088333         5.75955570E-13
   91.7356262         1.06780730E-12
   91.8624191         1.54316317E-12
   91.9892120         1.98366410E-12
   92.1159973         2.37148127E-12
   92.2427902         2.69003721E-12
   92.3695831         2.92471516E-12
   92.4963760         3.06351754E-12
   92.6231689         3.09765668E-12
   92.7499619         3.02203748E-12
   92.8767548         2.83561716E-12
   93.0035477         2.54162273E-12
   93.1303406         2.14759872E-12
   93.2571335         1.66529410E-12
   93.3839264         1.11036820E-12
   93.5107193         5.01929444E-13
   93.6375122        -1.38083541E-13
   93.7643051        -7.85664231E-13
   93.8910980        -1.41561600E-12
   94.0178909        -2.00251686E-12
   94.1446838        -2.52173586E-12
   94.2714767        -2.95046366E-12
   94.3982697        -3.26871603E-12
   94.5250626        -3.46026137E-12
   94.6518555        -3.51344843E-12
   94.7786484        -3.42187585E-12
   94.9054413        -3.18488356E-12
   95.0322342        -2.80783318E-12
   95.1590271        -2.30215716E-12
   95.2858200        -1.68516492E-12
   95.4126129        -9.79598022E-13
   95.5394058        -2.12945953E-13
   95.6661987         5.83456569E-13
   95.7929916         1.37553998E-12
   95.9197769         2.12776563E-12
   96.0465698         2.80451920E-12
   96.1733627         3.37156887E-12
   96.3001556         3.79753650E-12
   96.4269485         4.05532812E-12
   96.5537415         4.12346849E-12
   96.6805344         3.98726451E-12
   96.8073273         3.63976774E-12
   96.9341202         3.08246787E-12
   97.0609131         2.32568890E-12
   97.1877060         1.38865764E-12
   97.3144989         2.99220907E-13
   97.4412918        -9.06784196E-13
   97.5680847        -2.18650488E-12
   97.6948776        -3.49136735E-12
   97.8216705        -4.76865552E-12
   97.9484634        -5.96333009E-12
   98.0752563        -7.02001478E-12