  -4.50000000         0.00000000    
  -4.39856577         0.00000000    
  -4.29713154         0.00000000    
  -4.19569778         0.00000000    
  -4.09426355         0.00000000    
  -3.99282932         0.00000000    
  -3.89139533         0.00000000    
  -3.78996110         0.00000000    
  -3.68852711         0.00000000    
  -3.58709288         0.00000000    
  -3.48565888         0.00000000    
  -3.38422465         0.00000000    
  -3.28279042         0.00000000    
  -3.18135643         0.00000000    
  -3.07992220         0.00000000    
  -2.97848821        -1.64845641E-32
  -2.87705398        -5.46342033E-32
  -2.77561998        -1.45249019E-31
  -2.67418575        -3.74553149E-31
  -2.57275176        -8.86703789E-31
  -2.47131753        -1.87658156E-30
  -2.36988354        -3.64402120E-30
  -2.26844931        -6.16728133E-30
  -2.16701531        -2.15823892E-29
  -2.06558108        -6.90898057E-29
  -1.96414697        -1.98832899E-28
  -1.86271286        -4.65108807E-28
  -1.76127875        -9.63785129E-28
  -1.65984464        -1.76064818E-27
  -1.55841053        -2.90329413E-27
  -1.45697629        -4.34180953E-27
  -1.35554218        -5.87406129E-27
  -1.25410807        -7.08035326E-27
  -1.15267396        -7.28746777E-27
  -1.05123985        -5.60905064E-27
 -0.949805737        -1.12293175E-27
 -0.848371625         6.75840557E-27
 -0.746937513         1.76856313E-26
 -0.645503342         2.95719979E-26
 -0.544069231         3.77197293E-26
 -0.442635119         3.41332965E-26
 -0.341201007         7.41299295E-27
 -0.239766881        -5.62896876E-26
 -0.138332769        -1.70788472E-25
  -3.68986391E-02    -3.45596289E-25
   6.45354837E-02    -5.80053565E-25
  0.165969610        -8.56731046E-25
  0.267403722        -1.13585252E-24
  0.368837833        -1.35336188E-24
  0.470271975        -1.42581057E-24
  0.571706116        -1.26513045E-24
  0.673140228        -8.05085703E-25
  0.774574339        -3.85531609E-26
  0.876008451         9.39360282E-25
  0.977442563         1.89257020E-24
   1.07887673         2.42508405E-24
   1.18031085         2.00123500E-24
   1.28174496         2.47305952E-26
   1.38317907        -4.00899388E-24
   1.48461318        -1.02849878E-23
   1.58604729        -1.83834867E-23
   1.68748140        -2.69811224E-23
   1.78891551        -3.36111670E-23
   1.89034963        -3.45792318E-23
   1.99178374        -2.51421504E-23
   2.09321785        -4.62316802E-26
   2.19465208         4.55211207E-23
   2.29608607         1.14590389E-22
   2.39752030         2.06813202E-22
   2.49895430         3.16876792E-22
   2.60038853         4.33326369E-22
   2.70182276         5.38288188E-22
   2.80325675         6.08611414E-22
   2.90469098         6.18852722E-22
   3.00612497         5.46292210E-22
   3.10755920         3.77772512E-22
   3.20899320         1.17618214E-22
   3.31042743        -2.04721459E-22
   3.41186142        -5.29252663E-22
   3.51329565        -7.64605136E-22
   3.61472964        -7.94230965E-22
   3.71616387        -4.91660273E-22
   3.81759810         2.54209278E-22
   3.91903210         1.50449734E-21
   4.02046633         3.22936602E-21
   4.12190056         5.26613713E-21
   4.22333431         7.28436654E-21
   4.32476854         8.76733820E-21
   4.42620277         9.01977450E-21
   4.52763700         7.20996633E-21
   4.62907076         2.45067907E-21
   4.73050499        -6.08285641E-21
   4.83193922        -1.90072146E-20
   4.93337345        -3.65751123E-20
   5.03480768        -5.85349837E-20
   5.13624144        -8.40357923E-20
   5.23767567        -1.11607047E-19
   5.33910990        -1.39238640E-19
   5.44054413        -1.64572443E-19
   5.54197788        -1.85200246E-19
   5.64341211        -1.99040593E-19
   5.74484634        -2.04744986E-19
   5.84628057        -2.02067557E-19
   5.94771433        -1.92119896E-19
   6.04914856        -1.77439263E-19
   6.15058279        -1.61811753E-19
   6.25201702        -1.49825454E-19
   6.35345125        -1.46168630E-19
   6.45488501        -1.54733685E-19
   6.55631924        -1.77630264E-19
   6.65775347        -2.14240826E-19
   6.75918770        -2.60462554E-19
   6.86062145        -3.08267984E-19
   6.96205568        -3.45679967E-19
   7.06348991        -3.57204558E-19
   7.16492414        -3.24702046E-19
   7.26635790        -2.28619512E-19
   7.36779213        -4.94674072E-20
   7.46922636         2.30592312E-19
   7.57066059         6.26160162E-19
   7.67209482         1.14708713E-18
   7.77352858         1.79704326E-18
   7.87496281         2.57211294E-18
   7.97639704         3.45932164E-18
   8.07783127         4.43499710E-18
   8.17926502         5.46292948E-18
   8.28069973         6.49238222E-18
   8.38213348         7.45619281E-18
   8.48356724         8.26937256E-18
   8.58500195         8.82875759E-18
   8.68643570         9.01443647E-18
   8.78787041         8.69365169E-18
   8.88930416         7.72778184E-18
   8.99073792         5.98276328E-18
   9.09217262         3.34284530E-18
   9.19360638        -2.72920101E-19
   9.29504013        -4.89275016E-18
   9.39647484        -1.04746501E-17
   9.49790859        -1.68918702E-17
   9.59934330        -2.39240419E-17
   9.70077705        -3.12568756E-17
   9.80221081        -3.84926513E-17
   9.90364552        -4.51730943E-17
   10.0050793        -5.08144230E-17
   10.1065140        -5.49527845E-17
   10.2079477        -5.71958402E-17
   10.3093815        -5.72742900E-17
   10.4108162        -5.50852128E-17
   10.5122499        -5.07180168E-17
   10.6136837        -4.44542114E-17
   10.7151184        -3.67334664E-17
   10.8165522        -2.80820638E-17
   10.9179869        -1.90045771E-17
   11.0194206        -9.84559830E-18
   11.1208544        -6.34900463E-19
   11.2222891         9.06455535E-18
   11.3237228         2.02815819E-17
   11.4251575         3.47085283E-17
   11.5265913         5.46946611E-17
   11.6280251         8.31404395E-17
   11.7294598         1.23280656E-16
   11.8308935         1.78354751E-16
   11.9323273         2.51176212E-16
   12.0337620         3.43625147E-16
   12.1351957         4.56100455E-16
   12.2366304         5.86976045E-16
   12.3380642         7.32110640E-16
   12.4394979         8.84461957E-16
   12.5409327         1.03385157E-15
   12.6423664         1.16691833E-15
   12.7438011         1.26729438E-15
   12.8452349         1.31602037E-15
   12.9466686         1.29221430E-15
   13.0481033         1.17399624E-15
   13.1495371         9.39666164E-16
   13.2509708         5.69126467E-16
   13.3524055         4.55337053E-17
   13.4538393        -6.42844114E-16
   13.5552740        -1.50060113E-15
   13.6567078        -2.52305662E-15
   13.7581415        -3.69408687E-15
   13.8595762        -4.98404859E-15
   13.9610100        -6.34793935E-15
   14.0624447        -7.72400705E-15
   14.1638784        -9.03302786E-15
   14.2653122        -1.01785484E-14
   14.3667469        -1.10483293E-14
   14.4681807        -1.15173120E-14
   14.5696154        -1.14523200E-14
   14.6710491        -1.07186251E-14
   14.7724829        -9.18844824E-15
   14.8739176        -6.75122105E-15
   14.9753513        -3.32531328E-15
   15.0767851         1.12935919E-15
   15.1782198         6.59860562E-15
   15.2796535         1.30020794E-14
   15.3810883         2.01834179E-14
   15.4825220         2.79035506E-14
   15.5839558         3.58384553E-14
   15.6853905         4.35823456E-14
   15.7868242         5.06571205E-14
   15.8882589         5.65284310E-14
   15.9896927         6.06284567E-14
   16.0911274         6.23845593E-14
   16.1925602         6.12529436E-14
   16.2939949         5.67555138E-14
   16.3954296         4.85179591E-14
   16.4968624         3.63067662E-14
   16.5982971         2.00627648E-14
   16.6997318        -7.12354179E-17
   16.8011646        -2.37307309E-14
   16.9025993        -5.03193712E-14
   17.0040340        -7.90098781E-14
   17.1054688        -1.08756320E-13
   17.2069016        -1.38318285E-13
   17.3083363        -1.66296271E-13
   17.4097710        -1.91177735E-13
   17.5112038        -2.11392278E-13
   17.6126385        -2.25375071E-13
   17.7140732        -2.31635918E-13
   17.8155060        -2.28832713E-13
   17.9169407        -2.15846777E-13
   18.0183754        -1.91856961E-13
   18.1198101        -1.56410394E-13
   18.2212429        -1.09485615E-13
   18.3226776        -5.15451770E-14
   18.4241123         1.64267979E-14
   18.5255451         9.29060702E-14
   18.6269798         1.75831978E-13
   18.7284145         2.62636619E-13
   18.8298473         3.50302252E-13
   18.9312820         4.35445571E-13
   19.0327168         5.14429536E-13
   19.1341496         5.83497931E-13
   19.2355843         6.38927171E-13
   19.3370190         6.77189804E-13
   19.4384537         6.95117304E-13
   19.5398865         6.90057007E-13
   19.6413212         6.60009211E-13
   19.7427559         6.03738413E-13
   19.8441887         5.20849911E-13
   19.9456234         4.11828530E-13
   20.0470581         2.78035028E-13
   20.1484909         1.21665631E-13
   20.2499256        -5.43256947E-14
   20.3513603        -2.46328863E-13
   20.4527931        -4.50198147E-13
   20.5542278        -6.61376444E-13
   20.6556625        -8.75014742E-13
   20.7570972        -1.08607155E-12
   20.8585300        -1.28938830E-12
   20.9599648        -1.47972802E-12
   21.0613995        -1.65177919E-12
   21.1628323        -1.80012396E-12
   21.2642670        -1.91917619E-12
   21.3657017        -2.00310298E-12
   21.4671345        -2.04574335E-12
   21.5685692        -2.04054221E-12
   21.6700039        -1.98052989E-12
   21.7714367        -1.85836416E-12
   21.8728714        -1.66646569E-12
   21.9743061        -1.39726989E-12
   22.0757408        -1.04361268E-12
   22.1771736        -5.99262393E-13
   22.2786083        -5.96013988E-14
   22.3800430         5.77554389E-13
   22.4814758         1.31102496E-12
   22.5829105         2.13526202E-12
   22.6843452         3.03933202E-12
   22.7857780         4.00595746E-12
   22.8872128         5.01070279E-12
   22.9886475         6.02139606E-12
   23.0900803         6.99790096E-12
   23.1915150         7.89230833E-12
   23.2929497         8.64966345E-12
   23.3943844         9.20928264E-12
   23.4958172         9.50671313E-12
   23.5972519         9.47633465E-12
   23.6986866         9.05459475E-12
   23.8001194         8.18379045E-12
   23.9015541         6.81628538E-12
   24.0029888         4.91899447E-12
   24.1044216         2.47792412E-12
   24.2058563        -4.97476246E-13
   24.3072910        -3.97043596E-12
   24.4087238        -7.87374246E-12
   24.5101585        -1.21076899E-11
   24.6115932        -1.65393879E-11
   24.7130280        -2.10036398E-11
   24.8144608        -2.53056760E-11
   24.9158955        -2.92257642E-11
   25.0173302        -3.25258917E-11
   25.1187630        -3.49583487E-11
   25.2201977        -3.62761245E-11
   25.3216324        -3.62448682E-11
   25.4230652        -3.46559621E-11
   25.5244999        -3.13403262E-11
   25.6259346        -2.61822352E-11
   25.7273674        -1.91326070E-11
   25.8288021        -1.02209474E-11
   25.9302368         4.34814050E-13
   26.0316715         1.26212773E-11
   26.1331043         2.60261378E-11
   26.2345390         4.02388713E-11
   26.3359737         5.47562447E-11
   26.4374065         6.89926727E-11
   26.5388412         8.22959756E-11
   26.6402760         9.39681111E-11
   26.7417088         1.03290577E-10
   26.8431435         1.09554130E-10
   26.9445782         1.12091572E-10
   27.0460110         1.10312669E-10
   27.1474457         1.03739670E-10
   27.2488804         9.20421170E-11
   27.3503151         7.50687429E-11
   27.4517479         5.28752944E-11
   27.5531826         2.57459019E-11
   27.6546173        -5.79317323E-12
   27.7560501        -4.09692696E-11
   27.8574848        -7.87694146E-11
   27.9589195        -1.17957727E-10
   28.0603523        -1.57104371E-10
   28.1617870        -1.94626079E-10
   28.2632217        -2.28837074E-10
   28.3646545        -2.58009697E-10
   28.4660892        -2.80442142E-10
   28.5675240        -2.94531510E-10
   28.6689587        -2.98849251E-10
   28.7703915        -2.92215530E-10
   28.8718262        -2.73769507E-10
   28.9732609        -2.43032094E-10
   29.0746937        -1.99957925E-10
   29.1761284        -1.44973242E-10
   29.2775631        -7.89976765E-11
   29.3789959        -3.44715467E-12
   29.4804306         7.97826180E-11
   29.5818653         1.68353179E-10
   29.6832981         2.59540417E-10
   29.7847328         3.50310309E-10
   29.8861675         4.37411329E-10
   29.9876022         5.17481225E-10
   30.0890350         5.87163040E-10
   30.1904697         6.43228082E-10
   30.2919044         6.82699675E-10
   30.3933372         7.02973235E-10
   30.4947720         7.01928182E-10
   30.5962067         6.78026968E-10
   30.6976395         6.30395569E-10
   30.7990742         5.58883939E-10
   30.9005089         4.64102146E-10
   31.0019417         3.47429974E-10
   31.1033764         2.11000245E-10
   31.2048111         5.76554395E-11
   31.3062458        -1.09121066E-10
   31.4076786        -2.85296786E-10
   31.5091133        -4.66400807E-10
   31.6105480        -6.47650211E-10
   31.7119808        -8.24087520E-10
   31.8134155        -9.90721061E-10
   31.9148502        -1.14266796E-09
   32.0162849        -1.27528998E-09
   32.1177177        -1.38431777E-09
   32.2191505        -1.46596246E-09
   32.3205872        -1.51700730E-09
   32.4220200        -1.53487512E-09
   32.5234528        -1.51767898E-09
   32.6248894        -1.46424373E-09
   32.7263222        -1.37410583E-09
   32.8277550        -1.24749400E-09
   32.9291916        -1.08529175E-09
   33.0306244        -8.88982998E-10
   33.1320610        -6.60591803E-10
   33.2334938        -4.02615358E-10
   33.3349266        -1.17958768E-10
   33.4363632         1.90124222E-10
   33.5377960         5.18079524E-10
   33.6392288         8.62086180E-10
   33.7406654         1.21807175E-09
   33.8420982         1.58170588E-09
   33.9435310         1.94837790E-09
   34.0449677         2.31315012E-09
   34.1464005         2.67069811E-09
   34.2478333         3.01523850E-09
   34.3492699         3.34045458E-09
   34.4507027         3.63942187E-09
   34.5521355         3.90454735E-09
   34.6535721         4.12752854E-09
   34.7550049         4.29935332E-09
   34.8564377         4.41033343E-09
   34.9578743         4.45019399E-09
   35.0593071         4.40822445E-09
   35.1607399         4.27349400E-09
   35.2621765         4.03514289E-09
   35.3636093         3.68273168E-09
   35.4650421         3.20667337E-09
   35.5664787         2.59871635E-09
   35.6679115         1.85247917E-09
   35.7693481         9.64024083E-10
   35.8707809        -6.75561412E-11
   35.9722137        -1.23955446E-09
   36.0736504        -2.54509658E-09
   36.1750832        -3.97263467E-09
   36.2765160        -5.50553825E-09
   36.3779526        -7.12177917E-09
   36.4793854        -8.79376483E-09
   36.5808182        -1.04883231E-08
   36.6822548        -1.21668764E-08
   36.7836876        -1.37857983E-08
   36.8851204        -1.52969974E-08
   36.9865570        -1.66487020E-08
   37.0879898        -1.77864532E-08
   37.1894226        -1.86543083E-08
   37.2908592        -1.91962162E-08
   37.3922920        -1.93575644E-08
   37.4937248        -1.90868352E-08
   37.5951614        -1.83373619E-08
   37.6965942        -1.70691354E-08
   37.7980270        -1.52505599E-08
   37.8994637        -1.28602062E-08
   38.0008965        -9.88842075E-09
   38.1023293        -6.33873798E-09
   38.2037659        -2.22911867E-09
   38.3051987         2.40713427E-09
   38.4066353         7.52076534E-09
   38.5080681         1.30463231E-08
   38.6095009         1.89023375E-08
   38.7109375         2.49918823E-08
   38.8123703         3.12036335E-08
   38.9138031         3.74133187E-08
   39.0152397         4.34856595E-08
   39.1166725         4.92766787E-08
   39.2181053         5.46364411E-08
   39.3195419         5.94121232E-08
   39.4209747         6.34513952E-08
   39.5224075         6.66060203E-08
   39.6238441         6.87355950E-08
   39.7252769         6.97114615E-08
   39.8267097         6.94204871E-08
   39.9281464         6.77688305E-08
   40.0295792         6.46855653E-08
   40.1310120         6.01258208E-08
   40.2324486         5.40737695E-08
   40.3338814         4.65450185E-08
   40.4353142         3.75884284E-08
   40.5367508         2.72873333E-08
   40.6381836         1.57600066E-08
   40.7396202         3.15939608E-09
   40.8410530        -1.03280362E-08
   40.9424858        -2.44842564E-08
   41.0439224        -3.90625345E-08
   41.1453552        -5.37911475E-08
   41.2467880        -6.83779291E-08
   41.3482246        -8.25156903E-08
   41.4496574        -9.58882538E-08
   41.5510902        -1.08177325E-07
   41.6525269        -1.19069718E-07
   41.7539597        -1.28265256E-07
   41.8553925        -1.35484711E-07
   41.9568291        -1.40478207E-07
   42.0582619        -1.43033446E-07
   42.1596947        -1.42983723E-07
   42.2611313        -1.40215803E-07
   42.3625641        -1.34677251E-07
   42.4639969        -1.26382915E-07
   42.5654335        -1.15420988E-07
   42.6668663        -1.01957717E-07
   42.7682991        -8.62412790E-08
   42.8697357        -6.86044714E-08
   42.9711685        -4.94660171E-08
   43.0726013        -2.93305789E-08
   43.1740379        -8.78753603E-09
   43.2754707         1.14918022E-08
   43.3769073         3.07581658E-08
   43.4783401         4.81897189E-08
   43.5797729         6.28985717E-08
   43.6812096         7.39386152E-08
   43.7826424         8.03141731E-08
   43.8840752         8.09897003E-08
   43.9855118         7.49002851E-08
   44.0869446         6.09626838E-08
   44.1883774         3.80869594E-08
   44.2898140         5.18841370E-09
   44.3912468        -3.88001986E-08
   44.4926796        -9.49163024E-08
   44.5941162        -1.64155139E-07
   44.6955490        -2.47457336E-07
   44.7969818        -3.45696918E-07
   44.8984184        -4.59669053E-07
   44.9998512        -5.90078230E-07
   45.1012840        -7.37526534E-07
   45.2027206        -9.02502222E-07
   45.3041534        -1.08536892E-06
   45.4055862        -1.28635418E-06
   45.5070229        -1.50553956E-06
   45.6084557        -1.74284924E-06
   45.7098885        -1.99804276E-06
   45.8113251        -2.27070177E-06
   45.9127579        -2.56022577E-06
   46.0141945        -2.86582144E-06
   46.1156273        -3.18649768E-06
   46.2170601        -3.52106053E-06
   46.3184967        -3.86810871E-06
   46.4199295        -4.22603307E-06
   46.5213623        -4.59301782E-06
   46.6227989        -4.96704342E-06
   46.7242317        -5.34589662E-06
   46.8256645        -5.72717727E-06
   46.9271011        -6.10831421E-06
   47.0285339        -6.48658579E-06
   47.1299667        -6.85913801E-06
   47.2314034        -7.22301547E-06
   47.3328362        -7.57519319E-06
   47.4342690        -7.91260845E-06
   47.5357056        -8.23220216E-06
   47.6371384        -8.53096390E-06
   47.7385712        -8.80597145E-06
   47.8400078        -9.05444813E-06
   47.9414406        -9.27380552E-06
   48.0428734        -9.46169075E-06
   48.1443100        -9.61604565E-06
   48.2457428        -9.73514307E-06
   48.3471756        -9.81763606E-06
   48.4486122        -9.86259147E-06
   48.5500450        -9.86953637E-06
   48.6514816        -9.83846985E-06
   48.7529144        -9.76988849E-06
   48.8543472        -9.66479911E-06
   48.9557838        -9.52471055E-06
   49.0572166        -9.35163189E-06
   49.1586494        -9.14804241E-06
   49.2600861        -8.91686796E-06
   49.3615189        -8.66143546E-06
   49.4629517        -8.38541928E-06
   49.5643883        -8.09277662E-06
   49.6658211        -7.78768390E-06
   49.7672539        -7.47445074E-06
   49.8686905        -7.15745000E-06
   49.9701233        -6.84101633E-06
   50.0715561        -6.52936706E-06
   50.1729927        -6.22651805E-06
   50.2744255        -5.93619188E-06
   50.3758583        -5.66174458E-06
   50.4772949        -5.40609062E-06
   50.5787277        -5.17163971E-06
   50.6801605        -4.96025223E-06
   50.7815971        -4.77318690E-06
   50.8830299        -4.61109084E-06
   50.9844627        -4.47397906E-06
   51.0858994        -4.36124401E-06
   51.1873322        -4.27167515E-06
   51.2887688        -4.20349397E-06
   51.3902016        -4.15441218E-06
   51.4916344        -4.12168401E-06
   51.5930710        -4.10219809E-06
   51.6945038        -4.09255745E-06
   51.7959366        -4.08916549E-06
   51.8973732        -4.08834831E-06
   51.9988060        -4.08644382E-06
   52.1002388        -4.07990365E-06
   52.2016754        -4.06540903E-06
   52.3031082        -4.03994727E-06
   52.4045410        -4.00092085E-06
   52.5059776        -3.94620201E-06
   52.6074104        -3.87421278E-06
   52.7088432        -3.78396408E-06
   52.8102798        -3.67508937E-06
   52.9117126        -3.54786562E-06
   53.0131454        -3.40319525E-06
   53.1145821        -3.24260054E-06
   53.2160149        -3.06817765E-06
   53.3174477        -2.88253455E-06
   53.4188843        -2.68872736E-06
   53.5203171        -2.49017921E-06
   53.6217537        -2.29056968E-06
   53.7231865        -2.09374593E-06
   53.8246193        -1.90361197E-06
   53.9260559        -1.72400655E-06
   54.0274887        -1.55860505E-06
   54.1289215        -1.41081102E-06
   54.2303581        -1.28364695E-06
   54.3317909        -1.17969296E-06
   54.4332237        -1.10097312E-06
   54.5346603        -1.04892945E-06
   54.6360931        -1.02435445E-06
   54.7375259        -1.02737488E-06
   54.8389626        -1.05744755E-06
   54.9403954        -1.11335419E-06
   55.0418282        -1.19324795E-06
   55.1432648        -1.29468856E-06
   55.2446976        -1.41470525E-06
   55.3461304        -1.54988220E-06
   55.4475670        -1.69643693E-06
   55.5489998        -1.85032866E-06
   55.6504326        -2.00735076E-06
   55.7518692        -2.16326021E-06
   55.8533020        -2.31385934E-06
   55.9547348        -2.45512524E-06
   56.0561714        -2.58330397E-06
   56.1576042        -2.69499537E-06
   56.2590408        -2.78726520E-06
   56.3604736        -2.85767214E-06
   56.4619064        -2.90437129E-06
   56.5633430        -2.92611344E-06
   56.6647758        -2.92230402E-06
   56.7662086        -2.89299305E-06
   56.8676453        -2.83886220E-06
   56.9690781        -2.76121068E-06
   57.0705109        -2.66191296E-06
   57.1719475        -2.54335373E-06
   57.2733803        -2.40836994E-06
   57.3748131        -2.26016209E-06
   57.4762497        -2.10220765E-06
   57.5776825        -1.93817641E-06
   57.6791153        -1.77180925E-06
   57.7805519        -1.60683635E-06
   57.8819847        -1.44686430E-06
   57.9834175        -1.29528848E-06
   58.0848541        -1.15519504E-06
   58.1862869        -1.02927243E-06
   58.2877197        -9.19757440E-07
   58.3891563        -8.28345094E-07
   58.4905891        -7.56156112E-07
   58.5920219        -7.03715727E-07
   58.6934586        -6.70900590E-07
   58.7948914        -6.56965881E-07
   58.8963280        -6.60537694E-07
   58.9977608        -6.79660786E-07
   59.0991936        -7.11826658E-07
   59.2006302        -7.54032385E-07
   59.3020630        -8.02868840E-07
   59.4034958        -8.54584641E-07
   59.5049324        -9.05186198E-07
   59.6063652        -9.50552533E-07
   59.7077980        -9.86509349E-07
   59.8092346        -1.00898262E-06
   59.9106674        -1.01404396E-06
   60.0121002        -9.98088012E-07
   60.1135368        -9.57890279E-07
   60.2149696        -8.90688284E-07
   60.3164024        -7.94303276E-07
   60.4178391        -6.67190022E-07
   60.5192719        -5.08473079E-07
   60.6207047        -3.18026025E-07
   60.7221413        -9.64534834E-08
   60.8235741         1.54872609E-07
   60.9250069         4.33842160E-07
   61.0264435         7.37642381E-07
   61.1278763         1.06280368E-06
   61.2293091         1.40526174E-06
   61.3307457         1.76043670E-06
   61.4321785         2.12334703E-06
   61.5336151         2.48870629E-06
   61.6350479         2.85102556E-06
   61.7364807         3.20475374E-06
   61.8379173         3.54440226E-06
   61.9393501         3.86466445E-06
   62.0407829         4.16053945E-06
   62.1422195         4.42744158E-06
   62.2436523         4.66134634E-06
   62.3450851         4.85883766E-06
   62.4465218         5.01722616E-06
   62.5479546         5.13460736E-06
   62.6493874         5.20991625E-06
   62.7508240         5.24294728E-06
   62.8522568         5.23437757E-06
   62.9536896         5.18575416E-06
   63.0551262         5.09945039E-06
   63.1565590         4.97864448E-06
   63.2579918         4.82721271E-06
   63.3594284         4.64966752E-06
   63.4608612         4.45102796E-06
   63.5622940         4.23672554E-06
   63.6637306         4.01244552E-06
   63.7651634         3.78400409E-06
   63.8665962         3.55721113E-06
   63.9680328         3.33768935E-06
   64.0694656         3.13077408E-06
   64.1708984         2.94133815E-06
   64.2723312         2.77366712E-06
   64.3737717         2.63138418E-06
   64.4752045         2.51728170E-06
   64.5766373         2.43329896E-06
   64.6780701         2.38041844E-06
   64.7795029         2.35866469E-06
   64.8809357         2.36705523E-06
   64.9823761         2.40364216E-06
   65.0838089         2.46553827E-06
   65.1852417         2.54896804E-06
   65.2866745         2.64937421E-06
   65.3881073         2.76151650E-06
   65.4895477         2.87957118E-06
   65.5909805         2.99732960E-06
   65.6924133         3.10830615E-06
   65.7938461         3.20592562E-06
   65.8952789         3.28366764E-06
   65.9967117         3.33525486E-06
   66.0981522         3.35479740E-06
   66.1995850         3.33696971E-06
   66.3010178         3.27711223E-06
   66.4024506         3.17138051E-06
   66.5038834         3.01682940E-06
   66.6053162         2.81149755E-06
   66.7067566         2.55446844E-06
   66.8081894         2.24585324E-06
   66.9096222         1.88684544E-06
   67.0110550         1.47963613E-06
   67.1124878         1.02740148E-06
   67.2139206         5.34172386E-07
   67.3153610         4.77473483E-09
   67.4167938        -5.55319332E-07
   67.5182266        -1.14013699E-06
   67.6196594        -1.74333502E-06
   67.7210922        -2.35837229E-06
   67.8225327        -2.97867109E-06
   67.9239655        -3.59777687E-06
   68.0253983        -4.20951210E-06
   68.1268311        -4.80811741E-06
   68.2282639        -5.38837776E-06
   68.3296967        -5.94573294E-06
   68.4311371        -6.47637307E-06
   68.5325699        -6.97729729E-06
   68.6340027        -7.44635918E-06
   68.7354355        -7.88227226E-06
   68.8368683        -8.28461725E-06
   68.9383011        -8.65379116E-06
   69.0397415        -8.99094448E-06
   69.1411743        -9.29791986E-06
   69.2426071        -9.57713564E-06
   69.3440399        -9.83147766E-06
   69.4454727        -1.00641637E-05
   69.5469055        -1.02786053E-05
   69.6483459        -1.04782803E-05
   69.7497787        -1.06665630E-05
   69.8512115        -1.08466093E-05
   69.9526443        -1.10212031E-05
   70.0540771        -1.11926465E-05
   70.1555099        -1.13626493E-05
   70.2569504        -1.15322318E-05
   70.3583832        -1.17016452E-05
   70.4598160        -1.18703447E-05
   70.5612488        -1.20369286E-05
   70.6626816        -1.21991470E-05
   70.7641220        -1.23539367E-05
   70.8655548        -1.24974167E-05
   70.9669876        -1.26250088E-05
   71.0684204        -1.27314706E-05
   71.1698532        -1.28110205E-05
   71.2712860        -1.28574638E-05
   71.3727264        -1.28643214E-05
   71.4741592        -1.28249585E-05
   71.5755920        -1.27327976E-05
   71.6770248        -1.25813986E-05
   71.7784576        -1.23646896E-05
   71.8798904        -1.20771028E-05
   71.9813309        -1.17136969E-05
   72.0827637        -1.12704001E-05
   72.1841965        -1.07440283E-05
   72.2856293        -1.01325058E-05
   72.3870621        -9.43489704E-06
   72.4884949        -8.65154198E-06
   72.5899353        -7.78410140E-06
   72.6913681        -6.83558892E-06
   72.7928009        -5.81038375E-06
   72.8942337        -4.71423436E-06
   72.9956665        -3.55422071E-06
   73.0971069        -2.33868263E-06
   73.1985397        -1.07712697E-06
   73.2999725         2.19851032E-07
   73.4014053         1.54072598E-06
   73.5028381         2.87317948E-06
   73.6042709         4.20426386E-06
   73.7057114         5.52057736E-06
   73.8071442         6.80845505E-06
   73.9085770         8.05415766E-06
   74.0100098         9.24407504E-06
   74.1114426         1.03649381E-05
   74.2128754         1.14039558E-05
   74.3143158         1.23490790E-05
   74.4157486         1.31891138E-05
   74.5171814         1.39139165E-05
   74.6186142         1.45145268E-05
   74.7200470         1.49833177E-05
   74.8214798         1.53140900E-05
   74.9229202         1.55022026E-05
   75.0243530         1.55446014E-05
   75.1257858         1.54399131E-05
   75.2272186         1.51884688E-05
   75.3286514         1.47923083E-05
   75.4300842         1.42551971E-05
   75.5315247         1.35825776E-05
   75.6329575         1.27815410E-05
   75.7343903         1.18607750E-05
   75.8358231         1.08304575E-05
   75.9372559         9.70220117E-06
   76.0386963         8.48890522E-06
   76.1401291         7.20468188E-06
   76.2415619         5.86467968E-06
   76.3429947         4.48496166E-06
   76.4444275         3.08233984E-06
   76.5458603         1.67420649E-06
   76.6473007         2.78371942E-07
   76.7487335        -1.08714630E-06
   76.8501663        -2.40428494E-06
   76.9515991        -3.65516280E-06
   77.0530319        -4.82225096E-06
   77.1544647        -5.88860212E-06
   77.2559052        -6.83803910E-06
   77.3573380        -7.65535333E-06
   77.4587708        -8.32651313E-06
   77.5602036        -8.83883331E-06