  -4.50000000         0.00000000    
  -4.39856577         0.00000000    
  -4.29713154         0.00000000    
  -4.19569778         0.00000000    
  -4.09426355         0.00000000    
  -3.99282932         0.00000000    
  -3.89139533         0.00000000    
  -3.78996110         0.00000000    
  -3.68852711         0.00000000    
  -3.58709288         0.00000000    
  -3.48565888         0.00000000    
  -3.38422465         0.00000000    
  -3.28279042         0.00000000    
  -3.18135643         0.00000000    
  -3.07992220         0.00000000    
  -2.97848821         1.04992106E-32
  -2.87705398         2.41636387E-34
  -2.77561998        -3.44606366E-32
  -2.67418575        -1.21947300E-31
  -2.57275176        -2.32346497E-31
  -2.47131753        -2.04735428E-31
  -2.36988354         4.31922704E-31
  -2.26844931         2.76315614E-30
  -2.16701531        -1.77008324E-29
  -2.06558108        -1.13422083E-28
  -1.96414697        -2.94571972E-28
  -1.86271286        -5.41988801E-28
  -1.76127875        -7.61188566E-28
  -1.65984464        -7.84961764E-28
  -1.55841053        -2.52708611E-28
  -1.45697629         1.43217100E-27
  -1.35554218         5.22969790E-27
  -1.25410807         1.25742934E-26
  -1.15267396         2.55061549E-26
  -1.05123985         4.67914202E-26
 -0.949805737         8.00185497E-26
 -0.848371625         1.29648143E-25
 -0.746937513         2.01008821E-25
 -0.645503342         3.00225620E-25
 -0.544069231         4.34080229E-25
 -0.442635119         6.09799390E-25
 -0.341201007         8.34759791E-25
 -0.239766881         1.11607508E-24
 -0.138332769         1.45999684E-24
  -3.68986391E-02     1.87103351E-24
   6.45354837E-02     2.35065956E-24
  0.165969610         2.89551967E-24
  0.267403722         3.49509005E-24
  0.368837833         4.12888181E-24
  0.470271975         4.76343639E-24
  0.571706116         5.34944960E-24
  0.673140228         5.81936616E-24
  0.774574339         6.08551047E-24
  0.876008451         6.03825849E-24
  0.977442563         5.54291103E-24
   1.07887673         4.43296284E-24
   1.18031085         2.49676587E-24
   1.28174496        -5.45303897E-25
   1.38317907        -5.07455327E-24
   1.48461318        -1.16165716E-23
   1.58604729        -2.08853938E-23
   1.68748140        -3.38151380E-23
   1.78891551        -5.15585888E-23
   1.89034963        -7.54280146E-23
   1.99178374        -1.06754741E-22
   2.09321785        -1.46653761E-22
   2.19465208        -1.95698909E-22
   2.29608607        -2.53542924E-22
   2.39752030        -3.18550894E-22
   2.49895430        -3.87547925E-22
   2.60038853        -4.55799843E-22
   2.70182276        -5.17339626E-22
   2.80325675        -5.65708942E-22
   2.90469098        -5.95096472E-22
   3.00612497        -6.01732648E-22
   3.10755920        -5.85251690E-22
   3.20899320        -5.49595328E-22
   3.31042743        -5.02940959E-22
   3.41186142        -4.56144518E-22
   3.51329565        -4.19327509E-22
   3.61472964        -3.96528368E-22
   3.71616387        -3.78787480E-22
   3.81759810        -3.36567114E-22
   3.91903210        -2.12952560E-22
   4.02046633         8.04727990E-23
   4.12190056         6.63033325E-22
   4.22333431         1.67776038E-21
   4.32476854         3.27638445E-21
   4.42620277         5.59640110E-21
   4.52763700         8.73157961E-21
   4.62907076         1.26989147E-20
   4.73050499         1.74065943E-20
   4.83193922         2.26286113E-20
   4.93337345         2.79920924E-20
   5.03480768         3.29827509E-20
   5.13624144         3.69722689E-20
   5.23767567         3.92685675E-20
   5.33910990         3.91868673E-20
   5.44054413         3.61352041E-20
   5.54197788         2.97051673E-20
   5.64341211         1.97555950E-20
   5.74484634         6.47579062E-21
   5.84628057        -9.58414917E-21
   5.94771433        -2.75266547E-20
   6.04914856        -4.61692474E-20
   6.15058279        -6.41563933E-20
   6.25201702        -8.01133535E-20
   6.35345125        -9.28277335E-20
   6.45488501        -1.01438083E-19
   6.55631924        -1.05604242E-19
   6.65775347        -1.05632108E-19
   6.75918770        -1.02527531E-19
   6.86062145        -9.79605184E-20
   6.96205568        -9.41301875E-20
   7.06348991        -9.35351280E-20
   7.16492414        -9.86662198E-20
   7.26635790        -1.11655825E-19
   7.36779213        -1.33921123E-19
   7.46922636        -1.65844556E-19
   7.57066059        -2.06522054E-19
   7.67209482        -2.53594990E-19
   7.77352858        -3.03153009E-19
   7.87496281        -3.49667288E-19
   7.97639704        -3.85898678E-19
   8.07783127        -4.02711821E-19
   8.17926502        -3.88770209E-19
   8.28069973        -3.30115892E-19
   8.38213348        -2.09758747E-19
   8.48356724        -7.47830404E-21
   8.58500195         2.99820247E-19
   8.68643570         7.36813250E-19
   8.78787041         1.32709114E-18
   8.88930416         2.08882998E-18
   8.99073792         3.02867901E-18
   9.09217262         4.13412504E-18
   9.19360638         5.36501073E-18
   9.29504013         6.64538293E-18
   9.39647484         7.85728607E-18
   9.49790859         8.83836777E-18
   9.59934330         9.38520198E-18
   9.70077705         9.26393813E-18
   9.80221081         8.22904006E-18
   9.90364552         6.04997129E-18
   10.0050793         2.54418588E-18
   10.1065140        -2.38660818E-18
   10.2079477        -8.72118854E-18
   10.3093815        -1.62897588E-17
   10.4108162        -2.47565761E-17
   10.5122499        -3.36188502E-17
   10.6136837        -4.22254990E-17
   10.7151184        -4.98165785E-17
   10.8165522        -5.55813888E-17
   10.9179869        -5.87306308E-17
   11.0194206        -5.85743069E-17
   11.1208544        -5.45962465E-17
   11.2222891        -4.65141128E-17
   11.3237228        -3.43156936E-17
   11.4251575        -1.82639808E-17
   11.5265913         1.13197547E-18
   11.6280251         2.31785686E-17
   11.7294598         4.70840866E-17
   11.8308935         7.20575693E-17
   11.9323273         9.74040905E-17
   12.0337620         1.22598715E-16
   12.1351957         1.47322852E-16
   12.2366304         1.71450917E-16
   12.3380642         1.94981770E-16
   12.4394979         2.17919091E-16
   12.5409327         2.40114041E-16
   12.6423664         2.61090653E-16
   12.7438011         2.79883112E-16
   12.8452349         2.94914955E-16
   12.9466686         3.03945015E-16
   13.0481033         3.04100366E-16
   13.1495371         2.92001347E-16
   13.2509708         2.63965774E-16
   13.3524055         2.16268727E-16
   13.4538393         1.45416671E-16
   13.5552740         4.83895232E-17
   13.6567078        -7.71917536E-17
   13.7581415        -2.33002961E-16
   13.8595762        -4.20061797E-16
   13.9610100        -6.38865760E-16
   14.0624447        -8.89539178E-16
   14.1638784        -1.17192112E-15
   14.2653122        -1.48545650E-15
   14.3667469        -1.82878416E-15
   14.4681807        -2.19891638E-15
   14.5696154        -2.58995824E-15
   14.6710491        -2.99138029E-15
   14.7724829        -3.38597863E-15
   14.8739176        -3.74771379E-15
   14.9753513        -4.03976398E-15
   15.0767851        -4.21317957E-15
   15.1782198        -4.20658457E-15
   15.2796535        -3.94734972E-15
   15.3810883        -3.35460622E-15
   15.4825220        -2.34433944E-15
   15.5839558        -8.36582255E-16
   15.6853905         1.23541788E-15
   15.7868242         3.91462587E-15
   15.8882589         7.20880603E-15
   15.9896927         1.10792646E-14
   16.0911274         1.54309210E-14
   16.1925602         2.01047692E-14
   16.2939949         2.48739492E-14
   16.3954296         2.94445491E-14
   16.4968624         3.34617791E-14
   16.5982971         3.65221362E-14
   16.6997318         3.81914688E-14
   16.8011646         3.80286724E-14
   16.9025993         3.56138492E-14
   17.0040340         3.05800578E-14
   17.1054688         2.26463474E-14
   17.2069016         1.16507061E-14
   17.3083363        -2.41978932E-15
   17.4097710        -1.94030972E-14
   17.5112038        -3.89431732E-14
   17.6126385        -6.04792028E-14
   17.7140732        -8.32444736E-14
   17.8155060        -1.06275577E-13
   17.9169407        -1.28433370E-13
   18.0183754        -1.48434379E-13
   18.1198101        -1.64892974E-13
   18.2212429        -1.76374188E-13
   18.3226776        -1.81454895E-13
   18.4241123        -1.78792772E-13
   18.5255451        -1.67201905E-13
   18.6269798        -1.45731964E-13
   18.7284145        -1.13749328E-13
   18.8298473        -7.10176750E-14
   18.9312820        -1.77730890E-14
   19.0327168         4.52090825E-14
   19.1341496         1.16562101E-13
   19.2355843         1.94295250E-13
   19.3370190         2.75787775E-13
   19.4384537         3.57814825E-13
   19.5398865         4.36611874E-13
   19.6413212         5.07981135E-13
   19.7427559         5.67442144E-13
   19.8441887         6.10426531E-13
   19.9456234         6.32512218E-13
   20.0470581         6.29687600E-13
   20.1484909         5.98635128E-13
   20.2499256         5.37016558E-13
   20.3513603         4.43741642E-13
   20.4527931         3.19197360E-13
   20.5542278         1.65417810E-13
   20.6556625        -1.38250515E-14
   20.7570972        -2.13028217E-13
   20.8585300        -4.25071057E-13
   20.9599648        -6.41441869E-13
   21.0613995        -8.52572082E-13
   21.1628323        -1.04827041E-12
   21.2642670        -1.21823309E-12
   21.3657017        -1.35260845E-12
   21.4671345        -1.44258141E-12
   21.5685692        -1.48094395E-12
   21.6700039        -1.46261757E-12
   21.7714367        -1.38508584E-12
   21.8728714        -1.24871305E-12
   21.9743061        -1.05691822E-12
   22.0757408        -8.16186799E-13
   22.1771736        -5.35902757E-13
   22.2786083        -2.28004735E-13
   22.3800430         9.35334845E-14
   22.4814758         4.13380539E-13
   22.5829105         7.15663585E-13
   22.6843452         9.84886218E-13
   22.7857780         1.20691207E-12
   22.8872128         1.36996621E-12
   22.9886475         1.46560010E-12
   23.0900803         1.48956119E-12
   23.1915150         1.44250313E-12
   23.2929497         1.33047794E-12
   23.3943844         1.16515716E-12
   23.4958172         9.63706979E-13
   23.5972519         7.48299697E-13
   23.6986866         5.45226678E-13
   23.8001194         3.83592084E-13
   23.9015541         2.93628403E-13
   24.0029888         3.04658019E-13
   24.1044216         4.42784535E-13
   24.2058563         7.28410550E-13
   24.3072910         1.17371813E-12
   24.4087238         1.78024913E-12
   24.5101585         2.53678046E-12
   24.6115932         3.41765006E-12
   24.7130280         4.38172849E-12
   24.8144608         5.37219271E-12
   24.9158955         6.31723666E-12
   25.0173302         7.13187148E-12
   25.1187630         7.72078495E-12
   25.2201977         7.98232747E-12
   25.3216324         7.81356403E-12
   25.4230652         7.11616139E-12
   25.5244999         5.80303817E-12
   25.6259346         3.80537832E-12
   25.7273674         1.07975814E-12
   25.8288021        -2.38503119E-12
   25.9302368        -6.56187474E-12
   26.0316715        -1.13803203E-11
   26.1331043        -1.67231385E-11
   26.2345390        -2.24247409E-11
   26.3359737        -2.82719455E-11
   26.4374065        -3.40070819E-11
   26.5388412        -3.93338834E-11
   26.6402760        -4.39260052E-11
   26.7417088        -4.74381298E-11
   26.8431435        -4.95196002E-11
   26.9445782        -4.98299492E-11
   27.0460110        -4.80561077E-11
   27.1474457        -4.39305571E-11
   27.2488804        -3.72497380E-11
   27.3503151        -2.78918520E-11
   27.4517479        -1.58332791E-11
   27.5531826        -1.16265862E-12
   27.6546173         1.59082365E-11
   27.7560501         3.50377123E-11
   27.8574848         5.57521113E-11
   27.9589195         7.74491235E-11
   28.0603523         9.94068924E-11
   28.1617870         1.20799287E-10
   28.2632217         1.40716647E-10
   28.3646545         1.58192695E-10
   28.4660892         1.72236239E-10
   28.5675240         1.81866980E-10
   28.6689587         1.86154869E-10
   28.7703915         1.84260940E-10
   28.8718262         1.75479006E-10
   28.9732609         1.59275898E-10
   29.0746937         1.35329220E-10
   29.1761284         1.03560591E-10
   29.2775631         6.41631678E-11
   29.3789959         1.76214963E-11
   29.4804306        -3.52769619E-11
   29.5818653        -9.34402763E-11
   29.6832981        -1.55480989E-10
   29.7847328        -2.19735799E-10
   29.8861675        -2.84296725E-10
   29.9876022        -3.47052970E-10
   30.0890350        -4.05743078E-10
   30.1904697        -4.58016264E-10
   30.2919044        -5.01501951E-10
   30.3933372        -5.33884770E-10
   30.4947720        -5.52984325E-10
   30.5962067        -5.56836133E-10
   30.6976395        -5.43771861E-10
   30.7990742        -5.12496046E-10
   30.9005089        -4.62156563E-10
   31.0019417        -3.92405997E-10
   31.1033764        -3.03452041E-10
   31.2048111        -1.96094058E-10
   31.3062458        -7.17441939E-11
   31.4076786         6.75679096E-11
   31.5091133         2.19208457E-10
   31.6105480         3.79970666E-10
   31.7119808         5.46124590E-10
   31.8134155         7.13482273E-10
   31.9148502         8.77481754E-10
   32.0162849         1.03328379E-09
   32.1177177         1.17588062E-09
   32.2191505         1.30021727E-09
   32.3205872         1.40131851E-09
   32.4220200         1.47442014E-09
   32.5234528         1.51510593E-09
   32.6248894         1.51943980E-09
   32.7263222         1.48409540E-09
   32.8277550         1.40648004E-09
   32.9291916         1.28484734E-09
   33.0306244         1.11839726E-09
   33.1320610         9.07362463E-10
   33.2334938         6.53074095E-10
   33.3349266         3.58008984E-10
   33.4363632         2.58142223E-11
   33.5377960        -3.38692546E-10
   33.6392288        -7.29549032E-10
   33.7406654        -1.13969967E-09
   33.8420982        -1.56107383E-09
   33.9435310        -1.98469308E-09
   34.0449677        -2.40080178E-09
   34.1464005        -2.79902501E-09
   34.2478333        -3.16854742E-09
   34.3492699        -3.49831986E-09
   34.4507027        -3.77727760E-09
   34.5521355        -3.99457756E-09
   34.6535721        -4.13984669E-09
   34.7550049        -4.20344204E-09
   34.8564377        -4.17670876E-09
   34.9578743        -4.05224077E-09
   35.0593071        -3.82413301E-09
   35.1607399        -3.48822304E-09
   35.2621765        -3.04231818E-09
   35.3636093        -2.48638954E-09
   35.4650421        -1.82274862E-09
   35.5664787        -1.05618303E-09
   35.6679115        -1.94050206E-10
   35.7693481         7.53669793E-10
   35.8707809         1.77437587E-09
   35.9722137         2.85289947E-09
   36.0736504         3.97161859E-09
   36.1750832         5.11062392E-09
   36.2765160         6.24795682E-09
   36.3779526         7.35989270E-09
   36.4793854         8.42129300E-09
   36.5808182         9.40600753E-09
   36.6822548         1.02873301E-08
   36.7836876         1.10384830E-08
   36.8851204         1.16331611E-08
   36.9865570         1.20460806E-08
   37.0879898         1.22535537E-08
   37.1894226         1.22340742E-08
   37.2908592         1.19688810E-08
   37.3922920         1.14425234E-08
   37.4937248         1.06433777E-08
   37.5951614         9.56413526E-09
   37.6965942         8.20222645E-09
   37.7980270         6.56017596E-09
   37.8994637         4.64589611E-09
   38.0008965         2.47288345E-09
   38.1023293         6.03187986E-11
   38.2037659        -2.56692090E-09
   38.3051987        -5.37836398E-09
   38.4066353        -8.33814617E-09
   38.5080681        -1.14053176E-08
   38.6095009        -1.45342804E-08
   38.7109375        -1.76752781E-08
   38.8123703        -2.07750492E-08
   38.9138031        -2.37775328E-08
   39.0152397        -2.66246598E-08
   39.1166725        -2.92572651E-08
   39.2181053        -3.16160040E-08
   39.3195419        -3.36423902E-08
   39.4209747        -3.52798573E-08
   39.5224075        -3.64748338E-08
   39.6238441        -3.71778590E-08
   39.7252769        -3.73447406E-08
   39.8267097        -3.69376245E-08
   39.9281464        -3.59260888E-08
   40.0295792        -3.42882274E-08
   40.1310120        -3.20115561E-08
   40.2324486        -2.90939379E-08
   40.3338814        -2.55443613E-08
   40.4353142        -2.13835634E-08
   40.5367508        -1.66444938E-08
   40.6381836        -1.13726060E-08
   40.7396202        -5.62591573E-09
   40.8410530         5.25206434E-10
   40.9424858         6.99848046E-09
   41.0439224         1.37005101E-08
   41.1453552         2.05278514E-08
   41.2467880         2.73684613E-08
   41.3482246         3.41034472E-08
   41.4496574         4.06091907E-08
   41.5510902         4.67598333E-08
   41.6525269         5.24300177E-08
   41.7539597         5.74979779E-08
   41.8553925         6.18488301E-08
   41.9568291         6.53781385E-08
   42.0582619         6.79955221E-08
   42.1596947         6.96283706E-08
   42.2611313         7.02255534E-08
   42.3625641         6.97610432E-08
   42.4639969         6.82371706E-08
   42.5654335         6.56879209E-08
   42.6668663         6.21814849E-08
   42.7682991         5.78225361E-08
   42.8697357         5.27539612E-08
   42.9711685         4.71578119E-08
   43.0726013         4.12556531E-08
   43.1740379         3.53081901E-08
   43.2754707         2.96139522E-08
   43.3769073         2.45073810E-08
   43.4783401         2.03559090E-08
   43.5797729         1.75563759E-08
   43.6812096         1.65306169E-08
   43.7826424         1.77203727E-08
   43.8840752         2.15815330E-08
   43.9855118         2.85778743E-08
   44.0869446         3.91742780E-08
   44.1883774         5.38296590E-08
   44.2898140         7.29895291E-08
   44.3912468         9.70785621E-08
   44.4926796         1.26493049E-07
   44.5941162         1.61593491E-07
   44.6955490         2.02697308E-07
   44.7969818         2.50071963E-07
   44.8984184         3.03928374E-07
   44.9998512         3.64414888E-07
   45.1012840         4.31611227E-07
   45.2027206         5.05524383E-07
   45.3041534         5.86083047E-07
   45.4055862         6.73134764E-07
   45.5070229         7.66442440E-07
   45.6084557         8.65681500E-07
   45.7098885         9.70439146E-07
   45.8113251         1.08021209E-06
   45.9127579         1.19440733E-06
   46.0141945         1.31234151E-06
   46.1156273         1.43324246E-06
   46.2170601         1.55625241E-06
   46.3184967         1.68042936E-06
   46.4199295         1.80475115E-06
   46.5213623         1.92812172E-06
   46.6227989         2.04937487E-06
   46.7242317         2.16728540E-06
   46.8256645         2.28057502E-06
   46.9271011         2.38792063E-06
   47.0285339         2.48797323E-06
   47.1299667         2.57936199E-06
   47.2314034         2.66071606E-06
   47.3328362         2.73067826E-06
   47.4342690         2.78792095E-06
   47.5357056         2.83116947E-06
   47.6371384         2.85921874E-06
   47.7385712         2.87095531E-06
   47.8400078         2.86537920E-06
   47.9414406         2.84162775E-06
   48.0428734         2.79898927E-06
   48.1443100         2.73693468E-06
   48.2457428         2.65512745E-06
   48.3471756         2.55344389E-06
   48.4486122         2.43198929E-06
   48.5500450         2.29110492E-06
   48.6514816         2.13138128E-06
   48.7529144         1.95365510E-06
   48.8543472         1.75901221E-06
   48.9557838         1.54877546E-06
   49.0572166         1.32449975E-06
   49.1586494         1.08794518E-06
   49.2600861         8.41060967E-07
   49.3615189         5.85952478E-07
   49.4629517         3.24844450E-07
   49.5643883         6.00489543E-08
   49.6658211        -2.06086014E-07
   49.7672539        -4.71213980E-07
   49.8686905        -7.33044544E-07
   49.9701233        -9.89389378E-07
   50.0715561        -1.23821508E-06
   50.1729927        -1.47768844E-06
   50.2744255        -1.70622093E-06
   50.3758583        -1.92251355E-06
   50.4772949        -2.12558984E-06
   50.5787277        -2.31483023E-06
   50.6801605        -2.48998617E-06
   50.7815971        -2.65120434E-06
   50.8830299        -2.79902429E-06
   50.9844627        -2.93437688E-06
   51.0858994        -3.05857111E-06
   51.1873322        -3.17326544E-06
   51.2887688        -3.28044007E-06
   51.3902016        -3.38235031E-06
   51.4916344        -3.48147637E-06
   51.5930710        -3.58046350E-06
   51.6945038        -3.68206452E-06
   51.7959366        -3.78906702E-06
   51.8973732        -3.90421746E-06
   51.9988060        -4.03016293E-06
   52.1002388        -4.16936564E-06
   52.2016754        -4.32404704E-06
   52.3031082        -4.49612025E-06
   52.4045410        -4.68712778E-06
   52.5059776        -4.89820604E-06
   52.6074104        -5.13003533E-06
   52.7088432        -5.38281665E-06
   52.8102798        -5.65625987E-06
   52.9117126        -5.94956964E-06
   53.0131454        -6.26146175E-06
   53.1145821        -6.59017678E-06
   53.2160149        -6.93352922E-06
   53.3174477        -7.28893201E-06
   53.4188843        -7.65345794E-06
   53.5203171        -8.02390878E-06
   53.6217537        -8.39688073E-06
   53.7231865        -8.76883587E-06
   53.8246193        -9.13618533E-06
   53.9260559        -9.49537025E-06
   54.0274887        -9.84294365E-06
   54.1289215        -1.01756359E-05
   54.2303581        -1.04904402E-05
   54.3317909        -1.07846590E-05
   54.4332237        -1.10559913E-05
   54.5346603        -1.13025462E-05
   54.6360931        -1.15228986E-05
   54.7375259        -1.17161162E-05
   54.8389626        -1.18817625E-05
   54.9403954        -1.20199084E-05
   55.0418282        -1.21311132E-05
   55.1432648        -1.22164201E-05
   55.2446976        -1.22773108E-05
   55.3461304        -1.23156806E-05
   55.4475670        -1.23337741E-05
   55.5489998        -1.23341533E-05
   55.6504326        -1.23196260E-05
   55.7518692        -1.22931970E-05
   55.8533020        -1.22580032E-05
   55.9547348        -1.22172532E-05
   56.0561714        -1.21741714E-05
   56.1576042        -1.21319545E-05
   56.2590408        -1.20936938E-05
   56.3604736        -1.20623617E-05
   56.4619064        -1.20407567E-05
   56.5633430        -1.20314762E-05
   56.6647758        -1.20368813E-05
   56.7662086        -1.20590976E-05
   56.8676453        -1.20999830E-05
   56.9690781        -1.21611356E-05
   57.0705109        -1.22438832E-05
   57.1719475        -1.23492837E-05
   57.2733803        -1.24781436E-05
   57.3748131        -1.26310142E-05
   57.4762497        -1.28082165E-05
   57.5776825        -1.30098351E-05
   57.6791153        -1.32357409E-05
   57.7805519        -1.34856064E-05
   57.8819847        -1.37588959E-05
   57.9834175        -1.40548900E-05
   58.0848541        -1.43726811E-05
   58.1862869        -1.47111887E-05
   58.2877197        -1.50691412E-05
   58.3891563        -1.54450845E-05
   58.4905891        -1.58373859E-05
   58.5920219        -1.62442175E-05
   58.6934586        -1.66635655E-05
   58.7948914        -1.70932162E-05
   58.8963280        -1.75307650E-05
   58.9977608        -1.79736180E-05
   59.0991936        -1.84189867E-05
   59.2006302        -1.88639151E-05
   59.3020630        -1.93052838E-05
   59.4034958        -1.97398203E-05
   59.5049324        -2.01641524E-05
   59.6063652        -2.05748092E-05
   59.7077980        -2.09682821E-05
   59.8092346        -2.13410603E-05
   59.9106674        -2.16896806E-05
   60.0121002        -2.20107722E-05
   60.1135368        -2.23011248E-05
   60.2149696        -2.25577605E-05
   60.3164024        -2.27779601E-05
   60.4178391        -2.29593516E-05
   60.5192719        -2.30999740E-05
   60.6207047        -2.31983067E-05
   60.7221413        -2.32533621E-05
   60.8235741        -2.32646908E-05
   60.9250069        -2.32324546E-05
   61.0264435        -2.31574522E-05
   61.1278763        -2.30411224E-05
   61.2293091        -2.28855952E-05
   61.3307457        -2.26936554E-05
   61.4321785        -2.24687665E-05
   61.5336151        -2.22150338E-05
   61.6350479        -2.19371705E-05
   61.7364807        -2.16404860E-05
   61.8379173        -2.13307831E-05
   61.9393501        -2.10143317E-05
   62.0407829        -2.06977893E-05
   62.1422195        -2.03880991E-05
   62.2436523        -2.00924369E-05
   62.3450851        -1.98180551E-05
   62.4465218        -1.95722496E-05
   62.5479546        -1.93621927E-05
   62.6493874        -1.91948566E-05
   62.7508240        -1.90768915E-05
   62.8522568        -1.90145292E-05
   62.9536896        -1.90134451E-05
   63.0551262        -1.90786868E-05
   63.1565590        -1.92145490E-05
   63.2579918        -1.94244949E-05
   63.3594284        -1.97110730E-05
   63.4608612        -2.00758259E-05
   63.5622940        -2.05192518E-05
   63.6637306        -2.10407325E-05
   63.7651634        -2.16384979E-05
   63.8665962        -2.23096285E-05
   63.9680328        -2.30500209E-05
   64.0694656        -2.38544017E-05
   64.1708984        -2.47163971E-05
   64.2723312        -2.56284929E-05
   64.3737717        -2.65822018E-05
   64.4752045        -2.75680632E-05
   64.5766373        -2.85757887E-05
   64.6780701        -2.95943482E-05
   64.7795029        -3.06121183E-05
   64.8809357        -3.16170153E-05
   64.9823761        -3.25966466E-05
   65.0838089        -3.35384648E-05
   65.1852417        -3.44299733E-05
   65.2866745        -3.52588650E-05
   65.3881073        -3.60131962E-05
   65.4895477        -3.66815948E-05
   65.5909805        -3.72534123E-05
   65.6924133        -3.77188589E-05
   65.7938461        -3.80692363E-05
   65.8952789        -3.82969847E-05
   65.9967117        -3.83958941E-05
   66.0981522        -3.83611768E-05
   66.1995850        -3.81895552E-05
   66.3010178        -3.78793593E-05
   66.4024506        -3.74305491E-05
   66.5038834        -3.68447654E-05
   66.6053162        -3.61253078E-05
   66.7067566        -3.52771494E-05
   66.8081894        -3.43068677E-05
   66.9096222        -3.32225827E-05
   67.0110550        -3.20338768E-05
   67.1124878        -3.07516857E-05
   67.2139206        -2.93881803E-05
   67.3153610        -2.79566048E-05
   67.4167938        -2.64711525E-05
   67.5182266        -2.49467739E-05
   67.6196594        -2.33990195E-05
   67.7210922        -2.18438363E-05
   67.8225327        -2.02974188E-05
   67.9239655        -1.87759833E-05
   68.0253983        -1.72956188E-05
   68.1268311        -1.58720813E-05
   68.2282639        -1.45206359E-05
   68.3296967        -1.32558962E-05
   68.4311371        -1.20916411E-05
   68.5325699        -1.10407045E-05
   68.6340027        -1.01148189E-05
   68.7354355        -9.32451348E-06
   68.8368683        -8.67899689E-06
   68.9383011        -8.18608260E-06
   69.0397415        -7.85209613E-06
   69.1411743        -7.68183054E-06
   69.2426071        -7.67848996E-06
   69.3440399        -7.84366057E-06
   69.4454727        -8.17729142E-06
   69.5469055        -8.67770450E-06
   69.6483459        -9.34158470E-06
   69.7497787        -1.01640144E-05
   69.8512115        -1.11385079E-05
   69.9526443        -1.22570691E-05
   70.0540771        -1.35102355E-05
   70.1555099        -1.48871759E-05
   70.2569504        -1.63757650E-05
   70.3583832        -1.79626968E-05
   70.4598160        -1.96335641E-05
   70.5612488        -2.13730491E-05
   70.6626816        -2.31650047E-05
   70.7641220        -2.49926125E-05
   70.8655548        -2.68385793E-05
   70.9669876        -2.86852501E-05
   71.0684204        -3.05148405E-05
   71.1698532        -3.23095774E-05
   71.2712860        -3.40518818E-05
   71.3727264        -3.57246099E-05
   71.4741592        -3.73111725E-05
   71.5755920        -3.87957662E-05
   71.6770248        -4.01635552E-05
   71.7784576        -4.14007955E-05
   71.8798904        -4.24950413E-05
   71.9813309        -4.34352696E-05
   72.0827637        -4.42120436E-05
   72.1841965        -4.48175451E-05
   72.2856293        -4.52457498E-05
   72.3870621        -4.54924375E-05
   72.4884949        -4.55552799E-05
   72.5899353        -4.54338115E-05
   72.6913681        -4.51294327E-05
   72.7928009        -4.46454287E-05
   72.8942337        -4.39868672E-05
   72.9956665        -4.31604967E-05
   73.0971069        -4.21747427E-05
   73.1985397        -4.10394932E-05
   73.2999725        -3.97660151E-05
   73.4014053        -3.83667902E-05
   73.5028381        -3.68553774E-05
   73.6042709        -3.52462193E-05
   73.7057114        -3.35544864E-05
   73.8071442        -3.17959239E-05
   73.9085770        -2.99866369E-05
   74.0100098        -2.81429675E-05
   74.1114426        -2.62813355E-05
   74.2128754        -2.44180555E-05
   74.3143158        -2.25692620E-05
   74.4157486        -2.07507255E-05
   74.5171814        -1.89778220E-05
   74.6186142        -1.72653745E-05
   74.7200470        -1.56276292E-05
   74.8214798        -1.40781840E-05
   74.9229202        -1.26299656E-05
   75.0243530        -1.12951693E-05
   75.1257858        -1.00852885E-05
   75.2272186        -9.01108251E-06
   75.3286514        -8.08260120E-06
   75.4300842        -7.30919282E-06
   75.5315247        -6.69951442E-06
   75.6329575        -6.26155406E-06
   75.7343903        -6.00265457E-06
   75.8358231        -5.92950619E-06
   75.9372559        -6.04816842E-06
   76.0386963        -6.36405593E-06
   76.1401291        -6.88193404E-06
   76.2415619        -7.60588591E-06
   76.3429947        -8.53928304E-06
   76.4444275        -9.68472432E-06
   76.5458603        -1.10439814E-05
   76.6473007        -1.26179284E-05
   76.7487335        -1.44064488E-05
   76.8501663        -1.64083394E-05
   76.9515991        -1.86212164E-05
   77.0530319        -2.10414037E-05
   77.1544647        -2.36638280E-05
   77.2559052        -2.64819082E-05
   77.3573380        -2.94874408E-05
   77.4587708        -3.26705522E-05
   77.5602036        -3.60195481E-05