  -4.50000000         0.00000000    
  -4.39856577         0.00000000    
  -4.29713154         0.00000000    
  -4.19569778         0.00000000    
  -4.09426355         0.00000000    
  -3.99282932         0.00000000    
  -3.89139533         0.00000000    
  -3.78996110         0.00000000    
  -3.68852711         0.00000000    
  -3.58709288         0.00000000    
  -3.48565888         0.00000000    
  -3.38422465         0.00000000    
  -3.28279042         0.00000000    
  -3.18135643         0.00000000    
  -3.07992220         0.00000000    
  -2.97848821         9.61538877E-33
  -2.87705398        -2.69116472E-32
  -2.77561998        -1.43834253E-31
  -2.67418575        -4.34702936E-31
  -2.57275176        -1.03513863E-30
  -2.47131753        -2.11572413E-30
  -2.36988354        -3.96555934E-30
  -2.26844931        -7.04911876E-30
  -2.16701531        -1.23443247E-29
  -2.06558108        -2.42241362E-29
  -1.96414697        -4.65641381E-29
  -1.86271286        -1.38498389E-28
  -1.76127875        -3.19748523E-28
  -1.65984464        -6.06522910E-28
  -1.55841053        -1.02435418E-27
  -1.45697629        -1.52239591E-27
  -1.35554218        -1.95394009E-27
  -1.25410807        -2.03278901E-27
  -1.15267396        -1.27119109E-27
  -1.05123985         1.09351375E-27
 -0.949805737         6.20956099E-27
 -0.848371625         1.57455235E-26
 -0.746937513         3.20765265E-26
 -0.645503342         5.84898884E-26
 -0.544069231         9.93448961E-26
 -0.442635119         1.60045678E-25
 -0.341201007         2.46605388E-25
 -0.239766881         3.64521112E-25
 -0.138332769         5.16693588E-25
  -3.68986391E-02     7.00287800E-25
   6.45354837E-02     9.02776956E-25
  0.165969610         1.09799488E-24
  0.267403722         1.24374788E-24
  0.368837833         1.28326419E-24
  0.470271975         1.15316279E-24
  0.571706116         8.00331041E-25
  0.673140228         2.08629748E-25
  0.774574339        -5.66537124E-25
  0.876008451        -1.36212977E-24
  0.977442563        -1.88151905E-24
   1.07887673        -1.69543563E-24
   1.18031085        -2.89673767E-25
   1.28174496         2.82189824E-24
   1.38317907         7.90844023E-24
   1.48461318         1.47630585E-23
   1.58604729         2.24040536E-23
   1.68748140         2.87976892E-23
   1.78891551         3.06951774E-23
   1.89034963         2.36997545E-23
   1.99178374         2.68402350E-24
   2.09321785        -3.73486700E-23
   2.19465208        -9.99311514E-23
   2.29608607        -1.85410219E-22
   2.39752030        -2.89063829E-22
   2.49895430        -3.99452480E-22
   2.60038853        -4.97548078E-22
   2.70182276        -5.57276234E-22
   2.80325675        -5.48085512E-22
   2.90469098        -4.39975217E-22
   3.00612497        -2.11039086E-22
   3.10755920         1.42986151E-22
   3.20899320         5.98396208E-22
   3.31042743         1.09441185E-21
   3.41186142         1.52793800E-21
   3.51329565         1.75518638E-21
   3.61472964         1.60297606E-21
   3.71616387         8.91658392E-22
   3.81759810        -5.30098726E-22
   3.91903210        -2.74085589E-21
   4.02046633        -5.69745931E-21
   4.12190056        -9.18982151E-21
   4.22333431        -1.28101463E-20
   4.32476854        -1.59484784E-20
   4.42620277        -1.78255499E-20
   4.52763700        -1.75704148E-20
   4.62907076        -1.43440130E-20
   4.73050499        -7.50102647E-21
   4.83193922         3.22783263E-21
   4.93337345         1.75609038E-20
   5.03480768         3.45335143E-20
   5.13624144         5.24471509E-20
   5.23767567         6.89344599E-20
   5.33910990         8.11630780E-20
   5.44054413         8.61816539E-20
   5.54197788         8.13860355E-20
   5.64341211         6.50553447E-20
   5.74484634         3.68821094E-20
   5.84628057        -1.59678261E-21
   5.94771433        -4.67665817E-20
   6.04914856        -9.29821577E-20
   6.15058279        -1.32950245E-19
   6.25201702        -1.58450867E-19
   6.35345125        -1.61345249E-19
   6.45488501        -1.34759289E-19
   6.55631924        -7.42833264E-20
   6.65775347         2.09964564E-20
   6.75918770         1.47815069E-19
   6.86062145         2.98536152E-19
   6.96205568         4.61521597E-19
   7.06348991         6.22045146E-19
   7.16492414         7.63636133E-19
   7.26635790         8.69657888E-19
   7.36779213         9.24881913E-19
   7.46922636         9.16818557E-19
   7.57066059         8.36625257E-19
   7.67209482         6.79522773E-19
   7.77352858         4.44783287E-19
   7.87496281         1.35501762E-19
   7.97639704        -2.41537049E-19
   8.07783127        -6.75546464E-19
   8.17926502        -1.15069416E-18
   8.28069973        -1.64421296E-18
   8.38213348        -2.12383172E-18
   8.48356724        -2.54503064E-18
   8.58500195        -2.84897257E-18
   8.68643570        -2.96225289E-18
   8.78787041        -2.79972430E-18
   8.88930416        -2.27154922E-18
   8.99073792        -1.29522494E-18
   9.09217262         1.87387079E-19
   9.19360638         2.18898460E-18
   9.29504013         4.65385130E-18
   9.39647484         7.43632806E-18
   9.49790859         1.02850802E-17
   9.59934330         1.28380838E-17
   9.70077705         1.46332055E-17
   9.80221081         1.51381232E-17
   9.90364552         1.38015788E-17
   10.0050793         1.01248379E-17
   10.1065140         3.74871843E-18
   10.2079477        -5.45241726E-18
   10.3093815        -1.72819851E-17
   10.4108162        -3.11527766E-17
   10.5122499        -4.60545445E-17
   10.6136837        -6.05721334E-17
   10.7151184        -7.29643445E-17
   10.8165522        -8.13066926E-17
   10.9179869        -8.36926190E-17
   11.0194206        -7.84771129E-17
   11.1208544        -6.45364858E-17
   11.2222891        -4.15110366E-17
   11.3237228        -9.99196212E-18
   11.4251575         2.83838623E-17
   11.5265913         7.09611976E-17
   11.6280251         1.14232399E-16
   11.7294598         1.54140965E-16
   11.8308935         1.86500919E-16
   11.9323273         2.07490342E-16
   12.0337620         2.14161997E-16
   12.1351957         2.04904112E-16
   12.2366304         1.79784794E-16
   12.3380642         1.40725908E-16
   12.4394979         9.14705387E-17
   12.5409327         3.73373149E-17
   12.6423664        -1.52153025E-17
   12.7438011        -5.91642389E-17
   12.8452349        -8.75657168E-17
   12.9466686        -9.41902490E-17
   13.0481033        -7.40777098E-17
   13.1495371        -2.39649824E-17
   13.2509708         5.74281985E-17
   13.3524055         1.69229427E-16
   13.4538393         3.08298446E-16
   13.5552740         4.69079435E-16
   13.6567078         6.43331423E-16
   13.7581415         8.19668966E-16
   13.8595762         9.82898832E-16
   13.9610100         1.11320987E-15
   14.0624447         1.18537486E-15
   14.1638784         1.16820391E-15
   14.2653122         1.02458101E-15
   14.3667469         7.12434541E-16
   14.4681807         1.87002018E-16
   14.5696154        -5.95343989E-16
   14.6710491        -1.67160756E-15
   14.7724829        -3.06511472E-15
   14.8739176        -4.77726667E-15
   14.9753513        -6.77878477E-15
   15.0767851        -9.00137339E-15
   15.1782198        -1.13309622E-14
   15.2796535        -1.36037964E-14
   15.3810883        -1.56066380E-14
   15.4825220        -1.70820880E-14
   15.5839558        -1.77397990E-14
   15.6853905        -1.72737309E-14
   15.7868242        -1.53850440E-14
   15.8882589        -1.18095256E-14
   15.9896927        -6.34787370E-15
   16.0911274         1.10359520E-15
   16.1925602         1.05243547E-14
   16.2939949         2.17461564E-14
   16.3954296         3.44371172E-14
   16.4968624         4.80959436E-14
   16.5982971         6.20575775E-14
   16.6997318         7.55113338E-14
   16.8011646         8.75310634E-14
   16.9025993         9.71162509E-14
   17.0040340         1.03241973E-13
   17.1054688         1.04914870E-13
   17.2069016         1.01232404E-13
   17.3083363         9.14416722E-14
   17.4097710         7.49951520E-14
   17.5112038         5.16008473E-14
   17.6126385         2.12645724E-14
   17.7140732        -1.56766469E-14
   17.8155060        -5.85311218E-14
   17.9169407        -1.06239602E-13
   18.0183754        -1.57373138E-13
   18.1198101        -2.10143033E-13
   18.2212429        -2.62422815E-13
   18.3226776        -3.11785808E-13
   18.4241123        -3.55558302E-13
   18.5255451        -3.90892017E-13
   18.6269798        -4.14857981E-13
   18.7284145        -4.24561943E-13
   18.8298473        -4.17282474E-13
   18.9312820        -3.90628908E-13
   19.0327168        -3.42713352E-13
   19.1341496        -2.72330796E-13
   19.2355843        -1.79134390E-13
   19.3370190        -6.37942254E-14
   19.4384537         7.18755906E-14
   19.5398865         2.24836683E-13
   19.6413212         3.90806528E-13
   19.7427559         5.64310263E-13
   19.8441887         7.38810001E-13
   19.9456234         9.06914572E-13
   20.0470581         1.06066100E-12
   20.1484909         1.19185998E-12
   20.2499256         1.29248251E-12
   20.3513603         1.35507003E-12
   20.4527931         1.37313598E-12
   20.5542278         1.34153767E-12
   20.6556625         1.25678818E-12
   20.7570972         1.11729181E-12
   20.8585300         9.23483729E-13
   20.9599648         6.77867918E-13
   21.0613995         3.84953679E-13
   21.1628323         5.10985941E-14
   21.2642670        -3.15727994E-13
   21.3657017        -7.06239808E-13
   21.4671345        -1.11016263E-12
   21.5685692        -1.51657636E-12
   21.6700039        -1.91424437E-12
   21.7714367        -2.29191449E-12
   21.8728714        -2.63857491E-12
   21.9743061        -2.94365964E-12
   22.0757408        -3.19719576E-12
   22.1771736        -3.38990338E-12
   22.2786083        -3.51324894E-12
   22.3800430        -3.55946652E-12
   22.4814758        -3.52156173E-12
   22.5829105        -3.39330820E-12
   22.6843452        -3.16925913E-12
   22.7857780        -2.84479081E-12
   22.8872128        -2.41618899E-12
   22.9886475        -1.88079847E-12
   23.0900803        -1.23725585E-12
   23.1915150        -4.85805461E-13
   23.2929497         3.71279071E-13
   23.3943844         1.32917928E-12
   23.4958172         2.37992091E-12
   23.5972519         3.51169332E-12
   23.6986866         4.70812668E-12
   23.8001194         5.94759918E-12
   23.9015541         7.20260527E-12
   24.0029888         8.43930394E-12
   24.1044216         9.61731129E-12
   24.2058563         1.06898327E-11
   24.3072910         1.16042419E-11
   24.4087238         1.23031576E-11
   24.5101585         1.27260745E-11
   24.6115932         1.28115704E-11
   24.7130280         1.25000487E-11
   24.8144608         1.17369690E-11
   24.9158955         1.04764175E-11
   25.0173302         8.68489655E-12
   25.1187630         6.34510413E-12
   25.2201977         3.45950525E-12
   25.3216324         5.34551753E-14
   25.4230652        -3.82236950E-12
   25.5244999        -8.09040855E-12
   25.6259346        -1.26457855E-11
   25.7273674        -1.73570637E-11
   25.8288021        -2.20683818E-11
   25.9302368        -2.66029525E-11
   26.0316715        -3.07679819E-11
   26.1331043        -3.43608891E-11
   26.2345390        -3.71767027E-11
   26.3359737        -3.90165678E-11
   26.4374065        -3.96969090E-11
   26.5388412        -3.90591760E-11
   26.6402760        -3.69796624E-11
   26.7417088        -3.33789801E-11
   26.8431435        -2.82309055E-11
   26.9445782        -2.15697807E-11
   27.0460110        -1.34962441E-11
   27.1474457        -4.18055261E-12
   27.2488804         6.13682412E-12
   27.3503151         1.71480382E-11
   27.4517479         2.84840311E-11
   27.5531826         3.97247270E-11
   27.6546173         5.04126255E-11
   27.7560501         6.00702196E-11
   27.8574848         6.82201448E-11
   27.9589195         7.44077716E-11
   28.0603523         7.82250584E-11
   28.1617870         7.93347471E-11
   28.2632217         7.74931647E-11
   28.3646545         7.25708729E-11
   28.4660892         6.45692805E-11
   28.5675240         5.36322549E-11
   28.6689587         4.00514101E-11
   28.7703915         2.42645851E-11
   28.8718262         6.84644355E-12
   28.9732609        -1.15082961E-11
   29.0746937        -3.00090855E-11
   29.1761284        -4.78005135E-11
   29.2775631        -6.39986952E-11
   29.3789959        -7.77318834E-11
   29.4804306        -8.81833773E-11
   29.5818653        -9.46349041E-11
   29.6832981        -9.65083777E-11
   29.7847328        -9.34039929E-11
   29.8861675        -8.51325746E-11
   29.9876022        -7.17410784E-11
   30.0890350        -5.35280639E-11
   30.1904697        -3.10502665E-11
   30.2919044        -5.11750971E-12
   30.3933372         2.32233677E-11
   30.4947720         5.27163938E-11
   30.5962067         8.19333490E-11
   30.6976395         1.09323182E-10
   30.7990742         1.33265912E-10
   30.9005089         1.52137331E-10
   31.0019417         1.64374223E-10
   31.1033764         1.68544526E-10
   31.2048111         1.63415600E-10
   31.3062458         1.48020582E-10
   31.4076786         1.21718843E-10
   31.5091133         8.42488995E-11
   31.6105480         3.57715801E-11
   31.7119808        -2.30983982E-11
   31.8134155        -9.12747308E-11
   31.9148502        -1.67195008E-10
   32.0162849        -2.48832122E-10
   32.1177177        -3.33721162E-10
   32.2191505        -4.19000029E-10
   32.3205872        -5.01466979E-10
   32.4220200        -5.77650261E-10
   32.5234528        -6.43890941E-10
   32.6248894        -6.96438851E-10
   32.7263222        -7.31555927E-10
   32.8277550        -7.45630502E-10
   32.9291916        -7.35296157E-10
   33.0306244        -6.97555291E-10
   33.1320610        -6.29905239E-10
   33.2334938        -5.30463007E-10
   33.3349266        -3.98086480E-10
   33.4363632        -2.32488445E-10
   33.5377960        -3.43398990E-11
   33.6392288         1.94640373E-10
   33.7406654         4.51615662E-10
   33.8420982         7.32583327E-10
   33.9435310         1.03235365E-09
   34.0449677         1.34455791E-09
   34.1464005         1.66169078E-09
   34.2478333         1.97518890E-09
   34.3492699         2.27554731E-09
   34.4507027         2.55247024E-09
   34.5521355         2.79506662E-09
   34.6535721         2.99207725E-09
   34.7550049         3.13213566E-09
   34.8564377         3.20406079E-09
   34.9578743         3.19717852E-09
   35.0593071         3.10165160E-09
   35.1607399         2.90883562E-09
   35.2621765         2.61163469E-09
   35.3636093         2.20485474E-09
   35.4650421         1.68555203E-09
   35.5664787         1.05335385E-09
   35.6679115         3.10761195E-10
   35.7693481        -5.36593492E-10
   35.8707809        -1.47973378E-09
   35.9722137        -2.50618593E-09
   36.0736504        -3.59989394E-09
   36.1750832        -4.74120743E-09
   36.2765160        -5.90697047E-09
   36.3779526        -7.07068359E-09
   36.4793854        -8.20280732E-09
   36.5808182        -9.27112609E-09
   36.6822548        -1.02412923E-08
   36.7836876        -1.10774074E-08
   36.8851204        -1.17427845E-08
   36.9865570        -1.22007835E-08
   37.0879898        -1.24157609E-08
   37.1894226        -1.23540751E-08
   37.2908592        -1.19851933E-08
   37.3922920        -1.12828227E-08
   37.4937248        -1.02260458E-08
   37.5951614        -8.80045370E-09
   37.6965942        -6.99921410E-09
   37.7980270        -4.82404916E-09
   37.8994637        -2.28608998E-09
   38.0008965         5.93452010E-10
   38.1023293         3.78282206E-09
   38.2037659         7.23949523E-09
   38.3051987         1.09102389E-08
   38.4066353         1.47314729E-08
   38.5080681         1.86299385E-08
   38.6095009         2.25237464E-08
   38.7109375         2.63236579E-08
   38.8123703         2.99348244E-08
   38.9138031         3.32586829E-08
   39.0152397         3.61952210E-08
   39.1166725         3.86454282E-08
   39.2181053         4.05138785E-08
   39.3195419         4.17114698E-08
   39.4209747         4.21582023E-08
   39.5224075         4.17858708E-08
   39.6238441         4.05406730E-08
   39.7252769         3.83856182E-08
   39.8267097         3.53026657E-08
   39.9281464         3.12944515E-08
   40.0295792         2.63857221E-08
   40.1310120         2.06241779E-08
   40.2324486         1.40808138E-08
   40.3338814         6.84971635E-09
   40.4353142        -9.52750989E-10
   40.5367508        -9.18935061E-09
   40.6381836        -1.77039929E-08
   40.7396202        -2.63243383E-08
   40.8410530        -3.48649003E-08
   40.9424858        -4.31306972E-08
   41.0439224        -5.09213152E-08
   41.1453552        -5.80353259E-08
   41.2467880        -6.42749569E-08
   41.3482246        -6.94510121E-08
   41.4496574        -7.33877741E-08
   41.5510902        -7.59279928E-08
   41.6525269        -7.69378516E-08
   41.7539597        -7.63114443E-08
   41.8553925        -7.39752153E-08
   41.9568291        -6.98920317E-08
   42.0582619        -6.40647073E-08
   42.1596947        -5.65390366E-08
   42.2611313        -4.74064166E-08
   42.3625641        -3.68058295E-08
   42.4639969        -2.49251730E-08
   42.5654335        -1.20021539E-08
   42.6668663         1.67553993E-09
   42.7682991         1.57705191E-08
   42.8697357         2.98966221E-08
   42.9711685         4.36201937E-08
   43.0726013         5.64618574E-08
   43.1740379         6.78987817E-08
   43.2754707         7.73671331E-08
   43.3769073         8.42649257E-08
   43.4783401         8.79551507E-08
   43.5797729         8.77689530E-08
   43.6812096         8.30092830E-08
   43.7826424         7.29542791E-08
   43.8840752         5.68612215E-08
   43.9855118         3.39702630E-08
   44.0869446         3.50859652E-09
   44.1883774        -3.53055540E-08
   44.2898140        -8.32584703E-08
   44.3912468        -1.41136525E-07
   44.4926796        -2.09721378E-07
   44.5941162        -2.89784964E-07
   44.6955490        -3.82083982E-07
   44.7969818        -4.87354839E-07
   44.8984184        -6.06306514E-07
   44.9998512        -7.39615189E-07
   45.1012840        -8.87916258E-07
   45.2027206        -1.05179822E-06
   45.3041534        -1.23179314E-06
   45.4055862        -1.42837064E-06
   45.5070229        -1.64192704E-06
   45.6084557        -1.87277874E-06
   45.7098885        -2.12115219E-06
   45.8113251        -2.38717371E-06
   45.9127579        -2.67086352E-06
   46.0141945        -2.97212455E-06
   46.1156273        -3.29073464E-06
   46.2170601        -3.62634228E-06
   46.3184967        -3.97845361E-06
   46.4199295        -4.34643607E-06
   46.5213623        -4.72950842E-06
   46.6227989        -5.12673614E-06
   46.7242317        -5.53704422E-06
   46.8256645        -5.95920756E-06
   46.9271011        -6.39185509E-06
   47.0285339        -6.83349117E-06
   47.1299667        -7.28249142E-06
   47.2314034        -7.73712054E-06
   47.3328362        -8.19555589E-06
   47.4342690        -8.65588936E-06
   47.5357056        -9.11616826E-06
   47.6371384        -9.57440716E-06
   47.7385712        -1.00286152E-05
   47.8400078        -1.04768305E-05
   47.9414406        -1.09171424E-05
   48.0428734        -1.13477172E-05
   48.1443100        -1.17668415E-05
   48.2457428        -1.21729381E-05
   48.3471756        -1.25645947E-05
   48.4486122        -1.29405935E-05
   48.5500450        -1.32999330E-05
   48.6514816        -1.36418430E-05
   48.7529144        -1.39658041E-05
   48.8543472        -1.42715498E-05
   48.9557838        -1.45590802E-05
   49.0572166        -1.48286526E-05
   49.1586494        -1.50807828E-05
   49.2600861        -1.53162309E-05
   49.3615189        -1.55359849E-05
   49.4629517        -1.57412287E-05
   49.5643883        -1.59333285E-05
   49.6658211        -1.61137923E-05
   49.7672539        -1.62842316E-05
   49.8686905        -1.64463381E-05
   49.9701233        -1.66018235E-05
   50.0715561        -1.67523885E-05
   50.1729927        -1.68996885E-05
   50.2744255        -1.70452822E-05
   50.3758583        -1.71906031E-05
   50.4772949        -1.73369208E-05
   50.5787277        -1.74853158E-05
   50.6801605        -1.76366630E-05
   50.7815971        -1.77916008E-05
   50.8830299        -1.79505332E-05
   50.9844627        -1.81136202E-05
   51.0858994        -1.82807908E-05
   51.1873322        -1.84517394E-05
   51.2887688        -1.86259658E-05
   51.3902016        -1.88027843E-05
   51.4916344        -1.89813527E-05
   51.5930710        -1.91607305E-05
   51.6945038        -1.93398882E-05
   51.7959366        -1.95177818E-05
   51.8973732        -1.96933579E-05
   51.9988060        -1.98656417E-05
   52.1002388        -2.00337381E-05
   52.2016754        -2.01969069E-05
   52.3031082        -2.03545605E-05
   52.4045410        -2.05063261E-05
   52.5059776        -2.06520417E-05
   52.6074104        -2.07917965E-05
   52.7088432        -2.09259033E-05
   52.8102798        -2.10549279E-05
   52.9117126        -2.11796614E-05
   53.0131454        -2.13010935E-05
   53.1145821        -2.14203938E-05
   53.2160149        -2.15388754E-05
   53.3174477        -2.16579465E-05
   53.4188843        -2.17790493E-05
   53.5203171        -2.19036410E-05
   53.6217537        -2.20330858E-05
   53.7231865        -2.21686569E-05
   53.8246193        -2.23114312E-05
   53.9260559        -2.24622636E-05
   54.0274887        -2.26217417E-05
   54.1289215        -2.27901273E-05
   54.2303581        -2.29673478E-05
   54.3317909        -2.31529484E-05
   54.4332237        -2.33461014E-05
   54.5346603        -2.35456009E-05
   54.6360931        -2.37498643E-05
   54.7375259        -2.39569690E-05
   54.8389626        -2.41646903E-05
   54.9403954        -2.43705399E-05
   55.0418282        -2.45718329E-05
   55.1432648        -2.47657463E-05
   55.2446976        -2.49494151E-05
   55.3461304        -2.51199908E-05
   55.4475670        -2.52747341E-05
   55.5489998        -2.54111201E-05
   55.6504326        -2.55268897E-05
   55.7518692        -2.56201620E-05
   55.8533020        -2.56895055E-05
   55.9547348        -2.57339689E-05
   56.0561714        -2.57531974E-05
   56.1576042        -2.57474312E-05
   56.2590408        -2.57175579E-05
   56.3604736        -2.56651128E-05
   56.4619064        -2.55922969E-05
   56.5633430        -2.55019258E-05
   56.6647758        -2.53974304E-05
   56.7662086        -2.52827667E-05
   56.8676453        -2.51623787E-05
   56.9690781        -2.50410849E-05
   57.0705109        -2.49240093E-05
   57.1719475        -2.48164397E-05
   57.2733803        -2.47237385E-05
   57.3748131        -2.46511954E-05
   57.4762497        -2.46039290E-05
   57.5776825        -2.45867268E-05
   57.6791153        -2.46039381E-05
   57.7805519        -2.46593518E-05
   57.8819847        -2.47561038E-05
   57.9834175        -2.48965425E-05
   58.0848541        -2.50821959E-05
   58.1862869        -2.53136586E-05
   58.2877197        -2.55905852E-05
   58.3891563        -2.59116423E-05
   58.4905891        -2.62745143E-05
   58.5920219        -2.66759034E-05
   58.6934586        -2.71116023E-05
   58.7948914        -2.75765178E-05
   58.8963280        -2.80647782E-05
   58.9977608        -2.85698043E-05
   59.0991936        -2.90844546E-05
   59.2006302        -2.96011185E-05
   59.3020630        -3.01118689E-05
   59.4034958        -3.06086149E-05
   59.5049324        -3.10832402E-05
   59.6063652        -3.15277430E-05
   59.7077980        -3.19344144E-05
   59.8092346        -3.22959640E-05
   59.9106674        -3.26056397E-05
   60.0121002        -3.28573915E-05
   60.1135368        -3.30459588E-05
   60.2149696        -3.31669798E-05
   60.3164024        -3.32170566E-05
   60.4178391        -3.31938390E-05
   60.5192719        -3.30960720E-05
   60.6207047        -3.29236027E-05
   60.7221413        -3.26774061E-05
   60.8235741        -3.23595777E-05
   60.9250069        -3.19732826E-05
   61.0264435        -3.15227480E-05
   61.1278763        -3.10131654E-05
   61.2293091        -3.04506320E-05
   61.3307457        -2.98420691E-05
   61.4321785        -2.91951037E-05
   61.5336151        -2.85179885E-05
   61.6350479        -2.78194584E-05
   61.7364807        -2.71086192E-05
   61.8379173        -2.63948241E-05
   61.9393501        -2.56875537E-05
   62.0407829        -2.49962541E-05
   62.1422195        -2.43302511E-05
   62.2436523        -2.36986089E-05
   62.3450851        -2.31099912E-05
   62.4465218        -2.25725871E-05
   62.5479546        -2.20939673E-05
   62.6493874        -2.16810131E-05
   62.7508240        -2.13398107E-05
   62.8522568        -2.10755879E-05
   62.9536896        -2.08926267E-05
   63.0551262        -2.07942430E-05
   63.1565590        -2.07827215E-05
   63.2579918        -2.08592937E-05
   63.3594284        -2.10241251E-05
   63.4608612        -2.12763207E-05
   63.5622940        -2.16139360E-05
   63.6637306        -2.20340025E-05
   63.7651634        -2.25325693E-05
   63.8665962        -2.31047507E-05
   63.9680328        -2.37448057E-05
   64.0694656        -2.44461989E-05
   64.1708984        -2.52016762E-05
   64.2723312        -2.60033739E-05
   64.3737717        -2.68429249E-05
   64.4752045        -2.77115269E-05
   64.5766373        -2.86000904E-05
   64.6780701        -2.94993260E-05
   64.7795029        -3.03998786E-05
   64.8809357        -3.12924058E-05
   64.9823761        -3.21677217E-05
   65.0838089        -3.30168841E-05
   65.1852417        -3.38313148E-05
   65.2866745        -3.46028683E-05
   65.3881073        -3.53239448E-05
   65.4895477        -3.59875630E-05
   65.5909805        -3.65874366E-05
   65.6924133        -3.71180395E-05
   65.7938461        -3.75746422E-05
   65.8952789        -3.79533885E-05
   65.9967117        -3.82513317E-05
   66.0981522        -3.84664163E-05
   66.1995850        -3.85975472E-05
   66.3010178        -3.86445790E-05
   66.4024506        -3.86083120E-05
   66.5038834        -3.84905034E-05
   66.6053162        -3.82938269E-05
   66.7067566        -3.80218808E-05
   66.8081894        -3.76791213E-05
   66.9096222        -3.72708855E-05
   67.0110550        -3.68032852E-05
   67.1124878        -3.62831961E-05
   67.2139206        -3.57182180E-05
   67.3153610        -3.51165800E-05
   67.4167938        -3.44871078E-05
   67.5182266        -3.38391183E-05
   67.6196594        -3.31824012E-05
   67.7210922        -3.25270958E-05
   67.8225327        -3.18836028E-05
   67.9239655        -3.12625234E-05
   68.0253983        -3.06745424E-05
   68.1268311        -3.01303353E-05
   68.2282639        -2.96404651E-05
   68.3296967        -2.92152308E-05
   68.4311371        -2.88646279E-05
   68.5325699        -2.85981714E-05
   68.6340027        -2.84248054E-05
   68.7354355        -2.83527606E-05
   68.8368683        -2.83895042E-05
   68.9383011        -2.85415535E-05
   69.0397415        -2.88144111E-05
   69.1411743        -2.92124878E-05
   69.2426071        -2.97389761E-05
   69.3440399        -3.03958332E-05
   69.4454727        -3.11836629E-05
   69.5469055        -3.21017069E-05
   69.6483459        -3.31478332E-05
   69.7497787        -3.43184765E-05
   69.8512115        -3.56086930E-05
   69.9526443        -3.70121634E-05
   70.0540771        -3.85212334E-05
   70.1555099        -4.01269717E-05
   70.2569504        -4.18192831E-05
   70.3583832        -4.35869406E-05
   70.4598160        -4.54177643E-05
   70.5612488        -4.72986721E-05
   70.6626816        -4.92158833E-05
   70.7641220        -5.11549879E-05
   70.8655548        -5.31011574E-05
   70.9669876        -5.50392506E-05
   71.0684204        -5.69539989E-05
   71.1698532        -5.88301518E-05
   71.2712860        -6.06526119E-05
   71.3727264        -6.24065651E-05
   71.4741592        -6.40776852E-05
   71.5755920        -6.56522243E-05
   71.6770248        -6.71171438E-05
   71.7784576        -6.84601837E-05
   71.8798904        -6.96700590E-05
   71.9813309        -7.07364889E-05
   72.0827637        -7.16503200E-05
   72.1841965        -7.24035417E-05
   72.2856293        -7.29894164E-05
   72.3870621        -7.34025089E-05
   72.4884949        -7.36387301E-05
   72.5899353        -7.36953589E-05
   72.6913681        -7.35711074E-05
   72.7928009        -7.32661065E-05
   72.8942337        -7.27819061E-05
   72.9956665        -7.21215401E-05
   73.0971069        -7.12894253E-05
   73.1985397        -7.02914622E-05
   73.2999725        -6.91349051E-05
   73.4014053        -6.78284050E-05
   73.5028381        -6.63819737E-05
   73.6042709        -6.48068817E-05
   73.7057114        -6.31156727E-05
   73.8071442        -6.13220764E-05
   73.9085770        -5.94408921E-05
   74.0100098        -5.74879668E-05
   74.1114426        -5.54800645E-05
   74.2128754        -5.34347564E-05
   74.3143158        -5.13703126E-05
   74.4157486        -4.93055522E-05
   74.5171814        -4.72597094E-05
   74.6186142        -4.52522509E-05
   74.7200470        -4.33027417E-05
   74.8214798        -4.14306160E-05
   74.9229202        -3.96550095E-05
   75.0243530        -3.79945704E-05
   75.1257858        -3.64672305E-05
   75.2272186        -3.50900154E-05
   75.3286514        -3.38787977E-05
   75.4300842        -3.28481328E-05
   75.5315247        -3.20110266E-05
   75.6329575        -3.13787496E-05
   75.7343903        -3.09606439E-05
   75.8358231        -3.07639857E-05
   75.9372559        -3.07937953E-05
   76.0386963        -3.10527685E-05
   76.1401291        -3.15411162E-05
   76.2415619        -3.22565538E-05
   76.3429947        -3.31942247E-05
   76.4444275        -3.43467182E-05
   76.5458603        -3.57040735E-05
   76.6473007        -3.72538743E-05
   76.7487335        -3.89813285E-05
   76.8501663        -4.08693959E-05
   76.9515991        -4.28989806E-05
   77.0530319        -4.50491098E-05
   77.1544647        -4.72971660E-05
   77.2559052        -4.96191351E-05
   77.3573380        -5.19899040E-05
   77.4587708        -5.43834904E-05
   77.5602036        -5.67734423E-05