  -4.50000000         0.00000000    
  -4.39856577         0.00000000    
  -4.29713154         0.00000000    
  -4.19569778         0.00000000    
  -4.09426355         0.00000000    
  -3.99282932         0.00000000    
  -3.89139533         0.00000000    
  -3.78996110         0.00000000    
  -3.68852711         1.56466391E-34
  -3.58709288         1.97227454E-33
  -3.48565888         1.56264268E-32
  -3.38422465         6.52745336E-31
  -3.28279042        -2.42215807E-31
  -3.18135643        -8.60019653E-30
  -3.07992220        -4.74072591E-29
  -2.97848821        -1.49439248E-28
  -2.87705398        -3.52073066E-28
  -2.77561998        -5.78801508E-28
  -2.67418575        -3.43094357E-28
  -2.57275176         1.73061773E-27
  -2.47131753         8.41346579E-27
  -2.36988354         2.36651431E-26
  -2.26844931         5.03196715E-26
  -2.16701531         8.38083484E-26
  -2.06558108         1.00757352E-25
  -1.96414697         4.43755922E-26
  -1.86271286        -1.85226488E-25
  -1.76127875        -7.19084383E-25
  -1.65984464        -1.66204769E-24
  -1.55841053        -2.96819703E-24
  -1.45697629        -4.24741802E-24
  -1.35554218        -4.54728377E-24
  -1.25410807        -2.22333011E-24
  -1.15267396         4.91634801E-24
  -1.05123985         1.89687616E-23
 -0.949805737         4.06247715E-23
 -0.848371625         6.72106020E-23
 -0.746937513         9.04572348E-23
 -0.645503342         9.48418121E-23
 -0.544069231         5.77989676E-23
 -0.442635119        -4.66768966E-23
 -0.341201007        -2.39782817E-22
 -0.239766881        -5.24737248E-22
 -0.138332769        -8.70184917E-22
  -3.68986391E-02    -1.19407419E-21
   6.45354837E-02    -1.35443484E-21
  0.165969610        -1.15533716E-21
  0.267403722        -3.76442834E-22
  0.368837833         1.16806869E-21
  0.470271975         3.54153704E-21
  0.571706116         6.57784161E-21
  0.673140228         9.77764481E-21
  0.774574339         1.22425598E-20
  0.876008451         1.26910945E-20
  0.977442563         9.60140606E-21
   1.07887673         1.51445734E-21
   1.18031085        -1.24965261E-20
   1.28174496        -3.22292960E-20
   1.38317907        -5.57257491E-20
   1.48461318        -7.87747620E-20
   1.58604729        -9.47554649E-20
   1.68748140        -9.50504259E-20
   1.78891551        -7.02240409E-20
   1.89034963        -1.20545935E-20
   1.99178374         8.36763048E-20
   2.09321785         2.13983249E-19
   2.19465208         3.65692129E-19
   2.29608607         5.13544795E-19
   2.39752030         6.20398694E-19
   2.49895430         6.40454205E-19
   2.60038853         5.26096744E-19
   2.70182276         2.38285169E-19
   2.80325675        -2.40498110E-19
   2.90469098        -8.92775001E-19
   3.00612497        -1.65509049E-18
   3.10755920        -2.41315737E-18
   3.20899320        -3.00671571E-18
   3.31042743        -3.24677882E-18
   3.41186142        -2.94600458E-18
   3.51329565        -1.96016307E-18
   3.61472964        -2.35342526E-19
   3.71616387         2.14758917E-18
   3.81759810         4.94207246E-18
   3.91903210         7.72980182E-18
   4.02046633         9.94899257E-18
   4.12190056         1.09619216E-17
   4.22333431         1.01596755E-17
   4.32476854         7.09348486E-18
   4.42620277         1.61342395E-18
   4.52763700        -6.01174107E-18
   4.62907076        -1.50228821E-17
   4.73050499        -2.41741681E-17
   4.83193922        -3.18309224E-17
   4.93337345        -3.61662058E-17
   5.03480768        -3.54424128E-17
   5.13624144        -2.83440054E-17
   5.23767567        -1.43105985E-17
   5.33910990         6.19166319E-18
   5.44054413         3.15232443E-17
   5.54197788         5.89006330E-17
   5.64341211         8.46306352E-17
   5.74484634         1.04545405E-16
   5.84628057         1.14596689E-16
   5.94771433         1.11531330E-16
   6.04914856         9.35443004E-17
   6.15058279         6.07930237E-17
   6.25201702         1.56661688E-17
   6.35345125        -3.72710511E-17
   6.45488501        -9.16848711E-17
   6.55631924        -1.40206042E-16
   6.65775347        -1.75399493E-16
   6.75918770        -1.90832645E-16
   6.86062145        -1.82075688E-16
   6.96205568        -1.47466213E-16
   7.06348991        -8.85019000E-17
   7.16492414        -9.78386003E-18
   7.26635790         8.14920340E-17
   7.36779213         1.76412134E-16
   7.46922636         2.65441862E-16
   7.57066059         3.39546630E-16
   7.67209482         3.91136045E-16
   7.77352858         4.14670141E-16
   7.87496281         4.06831804E-16
   7.97639704         3.66272875E-16
   8.07783127         2.93039280E-16
   8.17926502         1.87858951E-16
   8.28069973         5.15278696E-17
   8.38213348        -1.15384112E-16
   8.48356724        -3.12346893E-16
   8.58500195        -5.38150842E-16
   8.68643570        -7.89737256E-16
   8.78787041        -1.06079463E-15
   8.88930416        -1.34044330E-15
   8.99073792        -1.61237370E-15
   9.09217262        -1.85478129E-15
   9.19360638        -2.04134411E-15
   9.29504013        -2.14333153E-15
   9.39647484        -2.13275569E-15
   9.49790859        -1.98625774E-15
   9.59934330        -1.68935999E-15
   9.70077705        -1.24051702E-15
   9.80221081        -6.54511782E-16
   9.90364552         3.52563899E-17
   10.0050793         7.75905579E-16
   10.1065140         1.49579189E-15
   10.2079477         2.10688519E-15
   10.3093815         2.50876526E-15
   10.4108162         2.59425905E-15
   10.5122499         2.25663532E-15
   10.6136837         1.39857072E-15
   10.7151184        -5.72126353E-17
   10.8165522        -2.15542759E-15
   10.9179869        -4.89410766E-15
   11.0194206        -8.20932643E-15
   11.1208544        -1.19597495E-14
   11.2222891        -1.59125032E-14
   11.3237228        -1.97324558E-14
   11.4251575        -2.29773543E-14
   11.5265913        -2.51016029E-14
   11.6280251        -2.54711311E-14
   11.7294598        -2.33915314E-14
   11.8308935        -1.81503287E-14
   11.9323273        -9.07357871E-15
   12.0337620         4.40549417E-15
   12.1351957         2.26689056E-14
   12.2366304         4.58323361E-14
   12.3380642         7.36664690E-14
   12.4394979         1.05527905E-13
   12.5409327         1.40307728E-13
   12.6423664         1.76404898E-13
   12.7438011         2.11730508E-13
   12.8452349         2.43747893E-13
   12.9466686         2.69551850E-13
   13.0481033         2.85984832E-13
   13.1495371         2.89790923E-13
   13.2509708         2.77798699E-13
   13.3524055         2.47128815E-13
   13.4538393         1.95414147E-13
   13.5552740         1.21022251E-13
   13.6567078         2.32671599E-14
   13.7581415        -9.74001221E-14
   13.8595762        -2.39239021E-13
   13.9610100        -3.99111787E-13
   14.0624447        -5.72434786E-13
   14.1638784        -7.53196876E-13
   14.2653122        -9.34051339E-13
   14.3667469        -1.10648697E-12
   14.4681807        -1.26108043E-12
   14.5696154        -1.38782573E-12
   14.6710491        -1.47654263E-12
   14.7724829        -1.51734441E-12
   14.8739176        -1.50115792E-12
   14.9753513        -1.42027655E-12
   15.0767851        -1.26890935E-12
   15.1782198        -1.04370950E-12
   15.2796535        -7.44239306E-13
   15.3810883        -3.73328701E-13
   15.4825220         6.26909887E-14
   15.5839558         5.53935532E-13
   15.6853905         1.08710881E-12
   15.7868242         1.64585619E-12
   15.8882589         2.21133572E-12
   15.9896927         2.76299296E-12
   16.0911274         3.27950384E-12
   16.1925602         3.73984871E-12
   16.2939949         4.12443343E-12
   16.3954296         4.41621913E-12
   16.4968624         4.60174086E-12
   16.5982971         4.67194903E-12
   16.6997318         4.62280778E-12
   16.8011646         4.45555788E-12
   16.9025993         4.17662346E-12
   17.0040340         3.79709545E-12
   17.1054688         3.33183502E-12
   17.2069016         2.79819267E-12
   17.3083363         2.21439729E-12
   17.4097710         1.59772250E-12
   17.5112038         9.62522271E-13
   17.6126385         3.18282428E-13
   17.7140732        -3.32147179E-13
   17.8155060        -9.94002732E-13
   17.9169407        -1.68154314E-12
   18.0183754        -2.41830427E-12
   18.1198101        -3.23656770E-12
   18.2212429        -4.17590745E-12
   18.3226776        -5.28078059E-12
   18.4241123        -6.59711695E-12
   18.5255451        -8.16806605E-12
   18.6269798        -1.00289221E-11
   18.7284145        -1.22015262E-11
   18.8298473        -1.46884015E-11
   18.9312820        -1.74670053E-11
   19.0327168        -2.04843902E-11
   19.1341496        -2.36528089E-11
   19.2355843        -2.68466048E-11
   19.3370190        -2.99008457E-11
   19.4384537        -3.26120381E-11
   19.5398865        -3.47412585E-11
   19.6413212        -3.60198746E-11
   19.7427559        -3.61580349E-11
   19.8441887        -3.48558335E-11
   19.9456234        -3.18171184E-11
   20.0470581        -2.67655360E-11
   20.1484909        -1.94624594E-11
   20.2499256        -9.72621983E-12
   20.3513603         2.54816372E-12
   20.4527931         1.73695884E-11
   20.5542278         3.46326613E-11
   20.6556625         5.41020354E-11
   20.7570972         7.54000334E-11
   20.8585300         9.79990533E-11
   20.9599648         1.21219396E-10
   21.0613995         1.44233944E-10
   21.1628323         1.66079969E-10
   21.2642670         1.85678958E-10
   21.3657017         2.01864525E-10
   21.4671345         2.13418033E-10
   21.5685692         2.19112034E-10
   21.6700039         2.17759644E-10
   21.7714367         2.08269180E-10
   21.8728714         1.89702073E-10
   21.9743061         1.61331906E-10
   22.0757408         1.22702154E-10
   22.1771736         7.36800135E-11
   22.2786083         1.45041106E-11
   22.3800430        -5.41770795E-11
   22.4814758        -1.31278113E-10
   22.5829105        -2.15263238E-10
   22.6843452        -3.04148040E-10
   22.7857780        -3.95518424E-10
   22.8872128        -4.86566620E-10
   22.9886475        -5.74144954E-10
   23.0900803        -6.54837518E-10
   23.1915150        -7.25047633E-10
   23.2929497        -7.81100296E-10
   23.3943844        -8.19357471E-10
   23.4958172        -8.36343106E-10
   23.5972519        -8.28874691E-10
   23.6986866        -7.94197874E-10
   23.8001194        -7.30120464E-10
   23.9015541        -6.35141439E-10
   24.0029888        -5.08569853E-10
   24.1044216        -3.50630330E-10
   24.2058563        -1.62551139E-10
   24.3072910         5.33711859E-11
   24.4087238         2.93732094E-10
   24.5101585         5.54008117E-10
   24.6115932         8.28578539E-10
   24.7130280         1.11078069E-09
   24.8144608         1.39300116E-09
   24.9158955         1.66680170E-09
   25.0173302         1.92308280E-09
   25.1187630         2.15228191E-09
   25.2201977         2.34460407E-09
   25.3216324         2.49028376E-09
   25.4230652         2.57987320E-09
   25.5244999         2.60455235E-09
   25.6259346         2.55645127E-09
   25.7273674         2.42898568E-09
   25.8288021         2.21718643E-09
   25.9302368         1.91802130E-09
   26.0316715         1.53069524E-09
   26.1331043         1.05691467E-09
   26.2345390         5.01111208E-10
   26.3359737        -1.29399463E-10
   26.4374065        -8.24319724E-10
   26.5388412        -1.57036339E-09
   26.6402760        -2.35133268E-09
   26.7417088        -3.14830295E-09
   26.8431435        -3.93990529E-09
   26.9445782        -4.70272532E-09
   27.0460110        -5.41180212E-09
   27.1474457        -6.04123729E-09
   27.2488804        -6.56489219E-09
   27.3503151        -6.95716462E-09
   27.4517479        -7.19383486E-09
   27.5531826        -7.25293781E-09
   27.6546173        -7.11566051E-09
   27.7560501        -6.76721879E-09
   27.8574848        -6.19768770E-09
   27.9589195        -5.40274758E-09
   28.0603523        -4.38432624E-09
   28.1617870        -3.15108561E-09
   28.2632217        -1.71874259E-09
   28.3646545        -1.10184993E-10
   28.4660892         1.64462988E-09
   28.5675240         3.50901352E-09
   28.6689587         5.44012435E-09
   28.7703915         7.38978834E-09
   28.8718262         9.30555188E-09
   28.9732609         1.11319380E-08
   29.0746937         1.28118991E-08
   29.1761284         1.42884113E-08
   29.2775631         1.55061812E-08
   29.3789959         1.64134022E-08
   29.4804306         1.69635115E-08
   29.5818653         1.71168928E-08
   29.6832981         1.68424759E-08
   29.7847328         1.61191362E-08
   29.8861675         1.49368891E-08
   29.9876022         1.32977922E-08
   30.0890350         1.12165175E-08
   30.1904697         8.72060024E-09
   30.2919044         5.85024829E-09
   30.3933372         2.65780686E-09
   30.4947720        -7.93189570E-10
   30.5962067        -4.42934756E-09
   30.6976395        -8.16909207E-09
   30.7990742        -1.19246586E-08
   30.9005089        -1.56043409E-08
   31.0019417        -1.91149532E-08
   31.1033764        -2.23643895E-08
   31.2048111        -2.52642600E-08
   31.3062458        -2.77324705E-08
   31.4076786        -2.96956895E-08
   31.5091133        -3.10916342E-08
   31.6105480        -3.18710391E-08
   31.7119808        -3.19993099E-08
   31.8134155        -3.14577555E-08
   31.9148502        -3.02443475E-08
   32.0162849        -2.83740125E-08
   32.1177177        -2.58783945E-08
   32.2191505        -2.28050929E-08
   32.3205872        -1.92164258E-08
   32.4220200        -1.51876893E-08
   32.5234528        -1.08050093E-08
   32.6248894        -6.16282403E-09
   32.7263222        -1.36104972E-09
   32.8277550         3.49792351E-09
   32.9291916         8.31239433E-09
   33.0306244         1.29845246E-08
   33.1320610         1.74234103E-08
   33.2334938         2.15480025E-08
   33.3349266         2.52897419E-08
   33.4363632         2.85947959E-08
   33.5377960         3.14259267E-08
   33.6392288         3.37636941E-08
   33.7406654         3.56072327E-08
   33.8420982         3.69742637E-08
   33.9435310         3.79005769E-08
   34.0449677         3.84387420E-08
   34.1464005         3.86562391E-08
   34.2478333         3.86330079E-08
   34.3492699         3.84582819E-08
   34.4507027         3.82270997E-08
   34.5521355         3.80362692E-08
   34.6535721         3.79800618E-08
   34.7550049         3.81456893E-08
   34.8564377         3.86086647E-08
   34.9578743         3.94282829E-08
   35.0593071         4.06431013E-08
   35.1607399         4.22670290E-08
   35.2621765         4.42854429E-08
   35.3636093         4.66523389E-08
   35.4650421         4.92878591E-08
   35.5664787         5.20768353E-08
   35.6679115         5.48683055E-08
   35.7693481         5.74758232E-08
   35.8707809         5.96794010E-08
   35.9722137         6.12280573E-08
   36.0736504         6.18441973E-08
   36.1750832         6.12289028E-08
   36.2765160         5.90683058E-08
   36.3779526         5.50419017E-08
   36.4793854         4.88312182E-08
   36.5808182         4.01299936E-08
   36.6822548         2.86551174E-08
   36.7836876         1.41582195E-08
   36.8851204        -3.56223784E-09
   36.9865570        -2.46482639E-08
   37.0879898        -4.91703105E-08
   37.1894226        -7.71150610E-08
   37.2908592        -1.08374167E-07
   37.3922920        -1.42733910E-07
   37.4937248        -1.79866248E-07
   37.5951614        -2.19321876E-07
   37.6965942        -2.60524843E-07
   37.7980270        -3.02770360E-07
   37.8994637        -3.45224805E-07
   38.0008965        -3.86929486E-07
   38.1023293        -4.26806537E-07
   38.2037659        -4.63670261E-07
   38.3051987        -4.96240148E-07
   38.4066353        -5.23159258E-07
   38.5080681        -5.43015290E-07
   38.6095009        -5.54366522E-07
   38.7109375        -5.55769418E-07
   38.8123703        -5.45812838E-07
   38.9138031        -5.23151527E-07
   39.0152397        -4.86545389E-07
   39.1166725        -4.34898368E-07
   39.2181053        -3.67301823E-07
   39.3195419        -2.83076076E-07
   39.4209747        -1.81814571E-07
   39.5224075        -6.34266399E-08
   39.6238441         7.18204021E-08
   39.7252769         2.23261765E-07
   39.8267097         3.89797151E-07
   39.9281464         5.69857264E-07
   40.0295792         7.61373883E-07
   40.1310120         9.61755063E-07
   40.2324486         1.16786646E-06
   40.3338814         1.37601853E-06
   40.4353142         1.58196076E-06
   40.5367508         1.78088294E-06
   40.6381836         1.96742599E-06
   40.7396202         2.13569888E-06
   40.8410530         2.27930491E-06
   40.9424858         2.39137717E-06
   41.0439224         2.46461855E-06
   41.1453552         2.49135951E-06
   41.2467880         2.46361060E-06
   41.3482246         2.37313202E-06
   41.4496574         2.21151004E-06
   41.5510902         1.97023428E-06
   41.6525269         1.64078369E-06
   41.7539597         1.21471885E-06
   41.8553925         6.83774601E-07
   41.9568291         3.99591151E-08
   42.0582619        -7.24352958E-07
   42.1596947        -1.61631851E-06
   42.2611313        -2.64252776E-06
   42.3625641        -3.80892061E-06
   42.4639969        -5.12068209E-06
   42.5654335        -6.58216914E-06
   42.6668663        -8.19682646E-06
   42.7682991        -9.96711969E-06
   42.8697357        -1.18944808E-05
   42.9711685        -1.39792437E-05
   43.0726013        -1.62206088E-05
   43.1740379        -1.86166362E-05
   43.2754707        -2.11641891E-05
   43.3769073        -2.38589746E-05
   43.4783401        -2.66955176E-05
   43.5797729        -2.96672297E-05
   43.6812096        -3.27663838E-05
   43.7826424        -3.59842161E-05
   43.8840752        -3.93109585E-05
   43.9855118        -4.27359373E-05
   44.0869446        -4.62475982E-05
   44.1883774        -4.98336703E-05
   44.2898140        -5.34811952E-05
   44.3912468        -5.71766650E-05
   44.4926796        -6.09061281E-05
   44.5941162        -6.46552799E-05
   44.6955490        -6.84096303E-05
   44.7969818        -7.21545512E-05
   44.8984184        -7.58753740E-05
   44.9998512        -7.95575834E-05
   45.1012840        -8.31868601E-05
   45.2027206        -8.67491472E-05
   45.3041534        -9.02308384E-05
   45.4055862        -9.36188226E-05
   45.5070229        -9.69004686E-05
   45.6084557        -1.00063837E-04
   45.7098885        -1.03097693E-04
   45.8113251        -1.05991450E-04
   45.9127579        -1.08735461E-04
   46.0141945        -1.11320784E-04
   46.1156273        -1.13739443E-04
   46.2170601        -1.15984243E-04
   46.3184967        -1.18048963E-04
   46.4199295        -1.19928322E-04
   46.5213623        -1.21617893E-04
   46.6227989        -1.23114252E-04
   46.7242317        -1.24414873E-04
   46.8256645        -1.25518171E-04
   46.9271011        -1.26423576E-04
   47.0285339        -1.27131309E-04
   47.1299667        -1.27642721E-04
   47.2314034        -1.27959895E-04
   47.3328362        -1.28086045E-04
   47.4342690        -1.28025116E-04
   47.5357056        -1.27782114E-04
   47.6371384        -1.27362931E-04
   47.7385712        -1.26774379E-04
   47.8400078        -1.26024126E-04
   47.9414406        -1.25120743E-04
   48.0428734        -1.24073762E-04
   48.1443100        -1.22893456E-04
   48.2457428        -1.21590914E-04
   48.3471756        -1.20178149E-04
   48.4486122        -1.18667769E-04
   48.5500450        -1.17073141E-04
   48.6514816        -1.15408307E-04
   48.7529144        -1.13687740E-04
   48.8543472        -1.11926507E-04
   48.9557838        -1.10140019E-04
   49.0572166        -1.08343927E-04
   49.1586494        -1.06554093E-04
   49.2600861        -1.04786399E-04
   49.3615189        -1.03056642E-04
   49.4629517        -1.01380385E-04
   49.5643883        -9.97727984E-05
   49.6658211        -9.82485726E-05
   49.7672539        -9.68217137E-05
   49.8686905        -9.55053692E-05
   49.9701233        -9.43117557E-05
   50.0715561        -9.32520197E-05
   50.1729927        -9.23360058E-05
   50.2744255        -9.15722703E-05
   50.3758583        -9.09678420E-05
   50.4772949        -9.05282432E-05
   50.5787277        -9.02573447E-05
   50.6801605        -9.01573439E-05
   50.7815971        -9.02286629E-05
   50.8830299        -9.04700573E-05
   50.9844627        -9.08785078E-05
   51.0858994        -9.14493066E-05
   51.1873322        -9.21761166E-05
   51.2887688        -9.30510068E-05
   51.3902016        -9.40645841E-05
   51.4916344        -9.52061309E-05
   51.5930710        -9.64636638E-05
   51.6945038        -9.78241733E-05
   51.7959366        -9.92737332E-05
   51.8973732        -1.00797726E-04
   51.9988060        -1.02380960E-04
   52.1002388        -1.04007951E-04
   52.2016754        -1.05663043E-04
   52.3031082        -1.07330612E-04
   52.4045410        -1.08995337E-04
   52.5059776        -1.10642250E-04
   52.6074104        -1.12257039E-04
   52.7088432        -1.13826114E-04
   52.8102798        -1.15336843E-04
   52.9117126        -1.16777635E-04
   53.0131454        -1.18138007E-04
   53.1145821        -1.19408833E-04
   53.2160149        -1.20582226E-04
   53.3174477        -1.21651778E-04
   53.4188843        -1.22612473E-04
   53.5203171        -1.23460675E-04
   53.6217537        -1.24194368E-04
   53.7231865        -1.24812781E-04
   53.8246193        -1.25316568E-04
   53.9260559        -1.25707738E-04
   54.0274887        -1.25989551E-04
   54.1289215        -1.26166371E-04
   54.2303581        -1.26243685E-04
   54.3317909        -1.26227955E-04
   54.4332237        -1.26126411E-04
   54.5346603        -1.25947088E-04
   54.6360931        -1.25698658E-04
   54.7375259        -1.25390201E-04
   54.8389626        -1.25031249E-04
   54.9403954        -1.24631653E-04
   55.0418282        -1.24201266E-04
   55.1432648        -1.23750127E-04
   55.2446976        -1.23288191E-04
   55.3461304        -1.22825237E-04
   55.4475670        -1.22370839E-04
   55.5489998        -1.21934303E-04
   55.6504326        -1.21524507E-04
   55.7518692        -1.21149911E-04
   55.8533020        -1.20818520E-04
   55.9547348        -1.20537668E-04
   56.0561714        -1.20314275E-04
   56.1576042        -1.20154509E-04
   56.2590408        -1.20063894E-04
   56.3604736        -1.20047298E-04
   56.4619064        -1.20108809E-04
   56.5633430        -1.20251832E-04
   56.6647758        -1.20478915E-04
   56.7662086        -1.20791810E-04
   56.8676453        -1.21191464E-04
   56.9690781        -1.21677942E-04
   57.0705109        -1.22250480E-04
   57.1719475        -1.22907251E-04
   57.2733803        -1.23645645E-04
   57.3748131        -1.24461963E-04
   57.4762497        -1.25351653E-04
   57.5776825        -1.26308980E-04
   57.6791153        -1.27327366E-04
   57.7805519        -1.28399071E-04
   57.8819847        -1.29515378E-04
   57.9834175        -1.30666551E-04
   58.0848541        -1.31841880E-04
   58.1862869        -1.33029636E-04
   58.2877197        -1.34217233E-04
   58.3891563        -1.35391179E-04
   58.4905891        -1.36537259E-04
   58.5920219        -1.37640614E-04
   58.6934586        -1.38685806E-04
   58.7948914        -1.39657044E-04
   58.8963280        -1.40538265E-04
   58.9977608        -1.41313401E-04
   59.0991936        -1.41966491E-04
   59.2006302        -1.42481935E-04
   59.3020630        -1.42844714E-04
   59.4034958        -1.43040670E-04
   59.5049324        -1.43056663E-04
   59.6063652        -1.42880905E-04
   59.7077980        -1.42503181E-04
   59.8092346        -1.41915021E-04
   59.9106674        -1.41110067E-04
   60.0121002        -1.40084216E-04
   60.1135368        -1.38835778E-04
   60.2149696        -1.37365685E-04
   60.3164024        -1.35677707E-04
   60.4178391        -1.33778449E-04
   60.5192719        -1.31677429E-04
   60.6207047        -1.29387205E-04
   60.7221413        -1.26923260E-04
   60.8235741        -1.24303930E-04
   60.9250069        -1.21550387E-04
   61.0264435        -1.18686381E-04
   61.1278763        -1.15738054E-04
   61.2293091        -1.12733716E-04
   61.3307457        -1.09703491E-04
   61.4321785        -1.06679021E-04
   61.5336151        -1.03693004E-04
   61.6350479        -1.00778932E-04
   61.7364807        -9.79704710E-05
   61.8379173        -9.53011840E-05
   61.9393501        -9.28038935E-05
   62.0407829        -9.05103516E-05
   62.1422195        -8.84507099E-05
   62.2436523        -8.66530609E-05
   62.3450851        -8.51430450E-05
   62.4465218        -8.39434215E-05
   62.5479546        -8.30736899E-05
   62.6493874        -8.25498209E-05
   62.7508240        -8.23839146E-05
   62.8522568        -8.25840107E-05
   62.9536896        -8.31539510E-05
   63.0551262        -8.40932480E-05
   63.1565590        -8.53971069E-05
   63.2579918        -8.70563672E-05
   63.3594284        -8.90577066E-05
   63.4608612        -9.13837430E-05
   63.5622940        -9.40133177E-05
   63.6637306        -9.69217508E-05
   63.7651634        -1.00081197E-04
   63.8665962        -1.03461054E-04
   63.9680328        -1.07028383E-04
   64.0694656        -1.10748406E-04
   64.1708984        -1.14585011E-04
   64.2723312        -1.18501310E-04
   64.3737717        -1.22460013E-04
   64.4752045        -1.26424187E-04
   64.5766373        -1.30357628E-04
   64.6780701        -1.34225382E-04
   64.7795029        -1.37994284E-04
   64.8809357        -1.41633354E-04
   64.9823761        -1.45114216E-04
   65.0838089        -1.48411404E-04
   65.1852417        -1.51502711E-04
   65.2866745        -1.54369453E-04
   65.3881073        -1.56996539E-04
   65.4895477        -1.59372634E-04
   65.5909805        -1.61490287E-04
   65.6924133        -1.63345729E-04
   65.7938461        -1.64939018E-04
   65.8952789        -1.66273647E-04
   65.9967117        -1.67356528E-04
   66.0981522        -1.68197657E-04
   66.1995850        -1.68809856E-04
   66.3010178        -1.69208375E-04
   66.4024506        -1.69410720E-04
   66.5038834        -1.69435967E-04
   66.6053162        -1.69304607E-04
   66.7067566        -1.69038074E-04
   66.8081894        -1.68658327E-04
   66.9096222        -1.68187456E-04
   67.0110550        -1.67647377E-04
   67.1124878        -1.67059392E-04
   67.2139206        -1.66443991E-04
   67.3153610        -1.65820442E-04
   67.4167938        -1.65206657E-04
   67.5182266        -1.64619036E-04
   67.6196594        -1.64072175E-04
   67.7210922        -1.63578909E-04
   67.8225327        -1.63150209E-04
   67.9239655        -1.62795157E-04
   68.0253983        -1.62521013E-04
   68.1268311        -1.62333323E-04
   68.2282639        -1.62235985E-04
   68.3296967        -1.62231372E-04
   68.4311371        -1.62320604E-04
   68.5325699        -1.62503638E-04
   68.6340027        -1.62779572E-04
   68.7354355        -1.63146775E-04
   68.8368683        -1.63603123E-04
   68.9383011        -1.64146230E-04
   69.0397415        -1.64773606E-04
   69.1411743        -1.65482852E-04
   69.2426071        -1.66271813E-04
   69.3440399        -1.67138714E-04
   69.4454727        -1.68082246E-04
   69.5469055        -1.69101651E-04
   69.6483459        -1.70196683E-04
   69.7497787        -1.71367661E-04
   69.8512115        -1.72615459E-04
   69.9526443        -1.73941356E-04
   70.0540771        -1.75346984E-04
   70.1555099        -1.76834234E-04
   70.2569504        -1.78404938E-04
   70.3583832        -1.80060946E-04
   70.4598160        -1.81803669E-04
   70.5612488        -1.83634198E-04
   70.6626816        -1.85552795E-04
   70.7641220        -1.87558922E-04
   70.8655548        -1.89650891E-04
   70.9669876        -1.91825937E-04
   71.0684204        -1.94079781E-04
   71.1698532        -1.96406661E-04
   71.2712860        -1.98799404E-04
   71.3727264        -2.01248913E-04
   71.4741592        -2.03744567E-04
   71.5755920        -2.06274024E-04
   71.6770248        -2.08823345E-04
   71.7784576        -2.11376988E-04
   71.8798904        -2.13917956E-04
   71.9813309        -2.16428045E-04
   72.0827637        -2.18887944E-04
   72.1841965        -2.21277296E-04
   72.2856293        -2.23575349E-04
   72.3870621        -2.25760799E-04
   72.4884949        -2.27812285E-04
   72.5899353        -2.29708632E-04
   72.6913681        -2.31429236E-04
   72.7928009        -2.32954233E-04
   72.8942337        -2.34264939E-04
   72.9956665        -2.35344036E-04
   73.0971069        -2.36175911E-04
   73.1985397        -2.36746913E-04
   73.2999725        -2.37045650E-04
   73.4014053        -2.37063112E-04
   73.5028381        -2.36792825E-04
   73.6042709        -2.36231208E-04
   73.7057114        -2.35377389E-04
   73.8071442        -2.34233405E-04
   73.9085770        -2.32804276E-04
   74.0100098        -2.31097860E-04
   74.1114426        -2.29124824E-04
   74.2128754        -2.26898526E-04
   74.3143158        -2.24434858E-04
   74.4157486        -2.21751950E-04
   74.5171814        -2.18870060E-04
   74.6186142        -2.15811175E-04
   74.7200470        -2.12598708E-04
   74.8214798        -2.09257298E-04
   74.9229202        -2.05812277E-04
   75.0243530        -2.02289390E-04
   75.1257858        -1.98714377E-04
   75.2272186        -1.95112618E-04
   75.3286514        -1.91508836E-04
   75.4300842        -1.87926635E-04
   75.5315247        -1.84388206E-04
   75.6329575        -1.80914110E-04
   75.7343903        -1.77522903E-04
   75.8358231        -1.74230969E-04
   75.9372559        -1.71052292E-04
   76.0386963        -1.67998413E-04
   76.1401291        -1.65078251E-04
   76.2415619        -1.62298093E-04
   76.3429947        -1.59661722E-04
   76.4444275        -1.57170332E-04
   76.5458603        -1.54822716E-04
   76.6473007        -1.52615467E-04
   76.7487335        -1.50543026E-04
   76.8501663        -1.48598221E-04
   76.9515991        -1.46772276E-04
   77.0530319        -1.45055092E-04
   77.1544647        -1.43435827E-04
   77.2559052        -1.41902958E-04
   77.3573380        -1.40444725E-04
   77.4587708        -1.39049400E-04
   77.5602036        -1.37705632E-04