  -4.50000000         0.00000000    
  -4.39856577         0.00000000    
  -4.29713154         0.00000000    
  -4.19569778         0.00000000    
  -4.09426355         0.00000000    
  -3.99282932         0.00000000    
  -3.89139533         0.00000000    
  -3.78996110         0.00000000    
  -3.68852711        -1.87052593E-34
  -3.58709288        -1.99230827E-33
  -3.48565888        -1.10889731E-32
  -3.38422465         4.41072141E-31
  -3.28279042         4.01126294E-30
  -3.18135643         2.11562923E-29
  -3.07992220         7.50547298E-29
  -2.97848821         2.28809264E-28
  -2.87705398         5.50276559E-28
  -2.77561998         1.01812563E-27
  -2.67418575         1.16517991E-27
  -2.57275176        -5.63561913E-28
  -2.47131753        -7.62935500E-27
  -2.36988354        -2.56957280E-26
  -2.26844931        -6.08146985E-26
  -2.16701531        -1.13143707E-25
  -2.06558108        -1.64079876E-25
  -1.96414697        -1.57592518E-25
  -1.86271286         1.66496736E-26
  -1.76127875         5.20180206E-25
  -1.65984464         1.51373385E-24
  -1.55841053         3.02464220E-24
  -1.45697629         4.71898250E-24
  -1.35554218         5.61174270E-24
  -1.25410807         3.82899318E-24
  -1.15267396        -3.36724252E-24
  -1.05123985        -1.90102273E-23
 -0.949805737        -4.50548661E-23
 -0.848371625        -8.01171995E-23
 -0.746937513        -1.16622785E-22
 -0.645503342        -1.38206197E-22
 -0.544069231        -1.18788859E-22
 -0.442635119        -2.51515299E-23
 -0.341201007         1.75285827E-22
 -0.239766881         5.00635970E-22
 -0.138332769         9.35592972E-22
  -3.68986391E-02     1.41081500E-21
   6.45354837E-02     1.78693045E-21
  0.165969610         1.85179082E-21
  0.267403722         1.34042346E-21
  0.368837833        -1.45496858E-23
  0.470271975        -2.39924040E-21
  0.571706116        -5.80722755E-21
  0.673140228        -9.91762655E-21
  0.774574339        -1.39918521E-20
  0.876008451        -1.68293418E-20
  0.977442563        -1.68280283E-20
   1.07887673        -1.21915945E-20
   1.18031085        -1.30821300E-21
   1.28174496         1.67075249E-20
   1.38317907         4.13659873E-20
   1.48461318         7.01625646E-20
   1.58604729         9.81198476E-20
   1.68748140         1.17727382E-19
   1.78891551         1.19499629E-19
   1.89034963         9.33212372E-20
   1.99178374         3.06253831E-20
   2.09321785        -7.27431355E-20
   2.19465208        -2.13377714E-19
   2.29608607        -3.77527377E-19
   2.39752030        -5.39539721E-19
   2.49895430        -6.62449300E-19
   2.60038853        -7.01487210E-19
   2.70182276        -6.10871952E-19
   2.80325675        -3.53570831E-19
   2.90469098         8.71320263E-20
   3.00612497         6.96311954E-19
   3.10755920         1.41906288E-18
   3.20899320         2.15812001E-18
   3.31042743         2.78001714E-18
   3.41186142         3.13114725E-18
   3.51329565         3.06317843E-18
   3.61472964         2.46487394E-18
   3.71616387         1.29498651E-18
   3.81759810        -3.90972009E-19
   3.91903210        -2.42786609E-18
   4.02046633        -4.54869803E-18
   4.12190056        -6.41673573E-18
   4.22333431        -7.68104862E-18
   4.32476854        -8.04876184E-18
   4.42620277        -7.36170397E-18
   4.52763700        -5.66086553E-18
   4.62907076        -3.22053983E-18
   4.73050499        -5.36462248E-19
   4.83193922         1.74134588E-18
   4.93337345         2.92986835E-18
   5.03480768         2.47483795E-18
   5.13624144         1.26352885E-19
   5.23767567        -3.90817445E-18
   5.33910990        -8.87500939E-18
   5.44054413        -1.34869243E-17
   5.54197788        -1.60637879E-17
   5.64341211        -1.48063559E-17
   5.74484634        -8.18212651E-18
   5.84628057         4.62629213E-18
   5.94771433         2.32848877E-17
   6.04914856         4.59748176E-17
   6.15058279         6.92544792E-17
   6.25201702         8.81946322E-17
   6.35345125         9.68312448E-17
   6.45488501         8.89331655E-17
   6.55631924         5.90256299E-17
   6.65775347         3.55460850E-18
   6.75918770        -7.79683902E-17
   6.86062145        -1.82027102E-16
   6.96205568        -3.00553309E-16
   7.06348991        -4.20926326E-16
   7.16492414        -5.26616371E-16
   7.26635790        -5.98492887E-16
   7.36779213        -6.16729824E-16
   7.46922636        -5.63157849E-16
   7.57066059        -4.23847372E-16
   7.67209482        -1.91662407E-16
   7.77352858         1.31486023E-16
   7.87496281         5.32952178E-16
   7.97639704         9.88456215E-16
   8.07783127         1.46216818E-15
   8.17926502         1.90791101E-15
   8.28069973         2.27158545E-15
   8.38213348         2.49486630E-15
   8.48356724         2.52015511E-15
   8.58500195         2.29670548E-15
   8.68643570         1.78768400E-15
   8.78787041         9.77785294E-16
   8.88930416        -1.19218259E-16
   8.99073792        -1.45381612E-15
   9.09217262        -2.93603727E-15
   9.19360638        -4.43382446E-15
   9.29504013        -5.77566864E-15
   9.39647484        -6.75847165E-15
   9.49790859        -7.16120956E-15
   9.59934330        -6.76437335E-15
   9.70077705        -5.37442447E-15
   9.80221081        -2.85165204E-15
   9.90364552         8.60942605E-16
   10.0050793         5.71073806E-15
   10.1065140         1.15139272E-14
   10.2079477         1.79426413E-14
   10.3093815         2.45237299E-14
   10.4108162         3.06513509E-14
   10.5122499         3.56144896E-14
   10.6136837         3.86392409E-14
   10.7151184         3.89441626E-14
   10.8165522         3.58060918E-14
   10.9179869         2.86322886E-14
   11.0194206         1.70342154E-14
   11.1208544         8.97629402E-16
   11.2222891        -1.95566372E-14
   11.3237228        -4.37265682E-14
   11.4251575        -7.06028050E-14
   11.5265913        -9.87667589E-14
   11.6280251        -1.26416957E-13
   11.7294598        -1.51425869E-13
   11.8308935        -1.71428206E-13
   11.9323273        -1.83940360E-13
   12.0337620        -1.86507805E-13
   12.1351957        -1.76875658E-13
   12.2366304        -1.53175188E-13
   12.3380642        -1.14116304E-13
   12.4394979        -5.91746297E-14
   12.5409327         1.12396266E-14
   12.6423664         9.56449140E-14
   12.7438011         1.91397625E-13
   12.8452349         2.94658666E-13
   12.9466686         4.00429147E-13
   13.0481033         5.02660901E-13
   13.1495371         5.94447668E-13
   13.2509708         6.68293871E-13
   13.3524055         7.16458793E-13
   13.4538393         7.31364947E-13
   13.5552740         7.06057283E-13
   13.6567078         6.34695855E-13
   13.7581415         5.13059701E-13
   13.8595762         3.39036172E-13
   13.9610100         1.13071085E-13
   14.0624447        -1.61453790E-13
   14.1638784        -4.77939845E-13
   14.2653122        -8.26420096E-13
   14.3667469        -1.19356218E-12
   14.4681807        -1.56284783E-12
   14.5696154        -1.91494281E-12
   14.6710491        -2.22827312E-12
   14.7724829        -2.47980065E-12
   14.8739176        -2.64598738E-12
   14.9753513        -2.70393668E-12
   15.0767851        -2.63265906E-12
   15.1782198        -2.41443757E-12
   15.2796535        -2.03621993E-12
   15.3810883        -1.49097683E-12
   15.4825220        -7.78960609E-13
   15.5839558         9.12324957E-14
   15.6853905         1.10185895E-12
   15.7868242         2.22557151E-12
   15.8882589         3.42537565E-12
   15.9896927         4.65506626E-12
   16.0911274         5.86017519E-12
   16.1925602         6.97946692E-12
   16.2939949         7.94696167E-12
   16.3954296         8.69448003E-12
   16.4968624         9.15461717E-12
   16.5982971         9.26409123E-12
   16.6997318         8.96729999E-12
   16.8011646         8.21997678E-12
   16.9025993         6.99277615E-12
   17.0040340         5.27457635E-12
   17.1054688         3.07534423E-12
   17.2069016         4.28387902E-13
   17.3083363        -2.60821833E-12
   17.4097710        -5.95114409E-12
   17.5112038        -9.49238778E-12
   17.6126385        -1.31010394E-11
   17.7140732        -1.66262733E-11
   17.8155060        -1.99015405E-11
   17.9169407        -2.27499790E-11
   18.0183754        -2.49909173E-11
   18.1198101        -2.64473166E-11
   18.2212429        -2.69539929E-11
   18.3226776        -2.63662651E-11
   18.4241123        -2.45688470E-11
   18.5255451        -2.14845641E-11
   18.6269798        -1.70824084E-11
   18.7284145        -1.13847083E-11
   18.8298473        -4.47281101E-12
   18.9312820         3.50902900E-12
   19.0327168         1.23520482E-11
   19.1341496         2.17838837E-11
   19.2355843         3.14724080E-11
   19.3370190         4.10326148E-11
   19.4384537         5.00365721E-11
   19.5398865         5.80266078E-11
   19.6413212         6.45313317E-11
   19.7427559         6.90844049E-11
   19.8441887         7.12453638E-11
   19.9456234         7.06220846E-11
   20.0470581         6.68940459E-11
   20.1484909         5.98353450E-11
   20.2499256         4.93367465E-11
   20.3513603         3.54253189E-11
   20.4527931         1.82808126E-11
   20.5542278        -1.75271223E-12
   20.6556625        -2.41608157E-11
   20.7570972        -4.82594034E-11
   20.8585300        -7.32029923E-11
   20.9599648        -9.80011836E-11
   21.0613995        -1.21543831E-10
   21.1628323        -1.42634571E-10
   21.2642670        -1.60032862E-10
   21.3657017        -1.72503567E-10
   21.4671345        -1.78872694E-10
   21.5685692        -1.78088058E-10
   21.6700039        -1.69282560E-10
   21.7714367        -1.51837612E-10
   21.8728714        -1.25443655E-10
   21.9743061        -9.01553832E-11
   22.0757408        -4.64368856E-11
   22.1771736         4.80525559E-12
   22.2786083         6.22052618E-11
   22.3800430         1.23940275E-10
   22.4814758         1.87754173E-10
   22.5829105         2.51004995E-10
   22.6843452         3.10736575E-10
   22.7857780         3.63774399E-10
   22.8872128         4.06844780E-10
   22.9886475         4.36713610E-10
   23.0900803         4.50342319E-10
   23.1915150         4.45052828E-10
   23.2929497         4.18698798E-10
   23.3943844         3.69831249E-10
   23.4958172         2.97853048E-10
   23.5972519         2.03151940E-10
   23.6986866         8.72029046E-11
   23.8001194        -4.73680505E-11
   23.9015541        -1.96767339E-10
   24.0029888        -3.56070090E-10
   24.1044216        -5.19314591E-10
   24.2058563        -6.79656331E-10
   24.3072910        -8.29581126E-10
   24.4087238        -9.61174251E-10
   24.5101585        -1.06643794E-09
   24.6115932        -1.13764753E-09
   24.7130280        -1.16773313E-09
   24.8144608        -1.15067278E-09
   24.9158955        -1.08187470E-09
   25.0173302        -9.58535473E-10
   25.1187630        -7.79951492E-10
   25.2201977        -5.47761225E-10
   25.3216324        -2.66106970E-10
   25.4230652         5.83052079E-11
   25.5244999         4.16257168E-10
   25.6259346         7.96189004E-10
   25.7273674         1.18449384E-09
   25.8288021         1.56592928E-09
   25.9302368         1.92414085E-09
   26.0316715         2.24227970E-09
   26.1331043         2.50369392E-09
   26.2345390         2.69266720E-09
   26.3359737         2.79517054E-09
   26.4374065         2.79960388E-09
   26.5388412         2.69747469E-09
   26.6402760         2.48399346E-09
   26.7417088         2.15854601E-09
   26.8431435         1.72500736E-09
   26.9445782         1.19188348E-09
   27.0460110         5.72251524E-10
   27.1474457        -1.16505583E-10
   27.2488804        -8.53167537E-10
   27.3503151        -1.61334757E-09
   27.4517479        -2.37033748E-09
   27.5531826        -3.09610271E-09
   27.6546173        -3.76238951E-09
   27.7560501        -4.34189218E-09
   27.8574848        -4.80944351E-09
   27.9589195        -5.14315079E-09
   28.0603523        -5.32545119E-09
   28.1617870        -5.34400035E-09
   28.2632217        -5.19237542E-09
   28.3646545        -4.87052620E-09
   28.4660892        -4.38495995E-09
   28.5675240        -3.74862585E-09
   28.6689587        -2.98049807E-09
   28.7703915        -2.10487205E-09
   28.8718262        -1.15038368E-09
   28.9732609        -1.48796683E-10
   29.0746937         8.66394845E-10
   29.1761284         1.86147908E-09
   29.2775631         2.80409829E-09
   29.3789959         3.66478137E-09
   29.4804306         4.41837278E-09
   29.5818653         5.04527575E-09
   29.6832981         5.53245183E-09
   29.7847328         5.87406568E-09
   29.8861675         6.07180350E-09
   29.9876022         6.13474826E-09
   30.0890350         6.07885475E-09
   30.1904697         5.92603522E-09
   30.2919044         5.70280845E-09
   30.3933372         5.43866552E-09
   30.4947720         5.16414289E-09
   30.5962067         4.90872409E-09
   30.6976395         4.69866501E-09
   30.7990742         4.55485250E-09
   30.9005089         4.49080328E-09
   31.0019417         4.51094717E-09
   31.1033764         4.60925342E-09
   31.2048111         4.76838702E-09
   31.3062458         4.95936492E-09
   31.4076786         5.14186871E-09
   31.5091133         5.26520605E-09
   31.6105480         5.26992094E-09
   31.7119808         5.09008213E-09
   31.8134155         4.65609595E-09
   31.9148502         3.89808852E-09
   32.0162849         2.74963430E-09
   32.1177177         1.15174581E-09
   32.2191505        -9.43028211E-10
   32.3205872        -3.56659746E-09
   32.4220200        -6.73155753E-09
   32.5234528        -1.04278666E-08
   32.6248894        -1.46201202E-08
   32.7263222        -1.92455722E-08
   32.8277550        -2.42130902E-08
   32.9291916        -2.94030720E-08
   33.0306244        -3.46684672E-08
   33.1320610        -3.98369195E-08
   33.2334938        -4.47140387E-08
   33.3349266        -4.90877063E-08
   33.4363632        -5.27334372E-08
   33.5377960        -5.54205606E-08
   33.6392288        -5.69191485E-08
   33.7406654        -5.70074512E-08
   33.8420982        -5.54796991E-08
   33.9435310        -5.21539611E-08
   34.0449677        -4.68798298E-08
   34.1464005        -3.95457498E-08
   34.2478333        -3.00857756E-08
   34.3492699        -1.84853555E-08
   34.4507027        -4.78623496E-09
   34.5521355         1.09100364E-08
   34.6535721         2.84397874E-08
   34.7550049         4.75764885E-08
   34.8564377         6.80314542E-08
   34.9578743         8.94561936E-08
   35.0593071         1.11446170E-07
   35.1607399         1.33546223E-07
   35.2621765         1.55257197E-07
   35.3636093         1.76043926E-07
   35.4650421         1.95344498E-07
   35.5664787         2.12580176E-07
   35.6679115         2.27166495E-07
   35.7693481         2.38524564E-07
   35.8707809         2.46093208E-07
   35.9722137         2.49340872E-07
   36.0736504         2.47777876E-07
   36.1750832         2.40968461E-07
   36.2765160         2.28542305E-07
   36.3779526         2.10205698E-07
   36.4793854         1.85751986E-07
   36.5808182         1.55071419E-07
   36.6822548         1.18159640E-07
   36.7836876         7.51255840E-08
   36.8851204         2.61977746E-08
   36.9865570        -2.82703176E-08
   37.0879898        -8.77965931E-08
   37.1894226        -1.51768106E-07
   37.2908592        -2.19440338E-07
   37.3922920        -2.89938583E-07
   37.4937248        -3.62260749E-07
   37.5951614        -4.35282800E-07
   37.6965942        -5.07765606E-07
   37.7980270        -5.78364450E-07
   37.8994637        -6.45641137E-07
   38.0008965        -7.08078176E-07
   38.1023293        -7.64095091E-07
   38.2037659        -8.12068379E-07
   38.3051987        -8.50353274E-07
   38.4066353        -8.77308139E-07
   38.5080681        -8.91321406E-07
   38.6095009        -8.90840965E-07
   38.7109375        -8.74405885E-07
   38.8123703        -8.40680173E-07
   38.9138031        -7.88487228E-07
   39.0152397        -7.16847410E-07
   39.1166725        -6.25014593E-07
   39.2181053        -5.12514760E-07
   39.3195419        -3.79183376E-07
   39.4209747        -2.25202811E-07
   39.5224075        -5.11386951E-08
   39.6238441         1.42026465E-07
   39.7252769         3.52861832E-07
   39.8267097         5.79459481E-07
   39.9281464         8.19410502E-07
   40.0295792         1.06978496E-06
   40.1310120         1.32711750E-06
   40.2324486         1.58739806E-06
   40.3338814         1.84607165E-06
   40.4353142         2.09803989E-06
   40.5367508         2.33767560E-06
   40.6381836         2.55884220E-06
   40.7396202         2.75492130E-06
   40.8410530         2.91884953E-06
   40.9424858         3.04316222E-06
   41.0439224         3.12004659E-06
   41.1453552         3.14140516E-06
   41.2467880         3.09892152E-06
   41.3482246         2.98413602E-06
   41.4496574         2.78853440E-06
   41.5510902         2.50363291E-06
   41.6525269         2.12107420E-06
   41.7539597         1.63272762E-06
   41.8553925         1.03079185E-06
   41.9568291         3.07902440E-07
   42.0582619        -5.42766145E-07
   42.1596947        -1.52739165E-06
   42.2611313        -2.65139670E-06
   42.3625641        -3.91935691E-06
   42.4639969        -5.33489265E-06
   42.5654335        -6.90058596E-06
   42.6668663        -8.61789158E-06
   42.7682991        -1.04870696E-05
   42.8697357        -1.25071201E-05
   42.9711685        -1.46757257E-05
   43.0726013        -1.69892064E-05
   43.1740379        -1.94425174E-05
   43.2754707        -2.20291986E-05
   43.3769073        -2.47414100E-05
   43.4783401        -2.75699294E-05
   43.5797729        -3.05042031E-05
   43.6812096        -3.35323639E-05
   43.7826424        -3.66413187E-05
   43.8840752        -3.98168122E-05
   43.9855118        -4.30435211E-05
   44.0869446        -4.63051620E-05
   44.1883774        -4.95845925E-05
   44.2898140        -5.28639393E-05
   44.3912468        -5.61247289E-05
   44.4926796        -5.93480363E-05
   44.5941162        -6.25146422E-05
   44.6955490        -6.56051707E-05
   44.7969818        -6.86002604E-05
   44.8984184        -7.14806592E-05
   44.9998512        -7.42274860E-05
   45.1012840        -7.68222817E-05
   45.2027206        -7.92472129E-05
   45.3041534        -8.14852247E-05
   45.4055862        -8.35202227E-05
   45.5070229        -8.53370584E-05
   45.6084557        -8.69218347E-05
   45.7098885        -8.82619424E-05
   45.8113251        -8.93461329E-05
   45.9127579        -9.01647654E-05
   46.0141945        -9.07097128E-05
   46.1156273        -9.09746013E-05
   46.2170601        -9.09547671E-05
   46.3184967        -9.06473579E-05
   46.4199295        -9.00514278E-05
   46.5213623        -8.91678646E-05
   46.6227989        -8.79994914E-05
   46.7242317        -8.65510519E-05
   46.8256645        -8.48291820E-05
   46.9271011        -8.28424600E-05
   47.0285339        -8.06012176E-05
   47.1299667        -7.81177150E-05
   47.2314034        -7.54057910E-05
   47.3328362        -7.24810670E-05
   47.4342690        -6.93605980E-05
   47.5357056        -6.60629303E-05
   47.6371384        -6.26079272E-05
   47.7385712        -5.90165728E-05
   47.8400078        -5.53108803E-05
   47.9414406        -5.15136599E-05
   48.0428734        -4.76484893E-05
   48.1443100        -4.37392919E-05
   48.2457428        -3.98103148E-05
   48.3471756        -3.58858888E-05
   48.4486122        -3.19901628E-05
   48.5500450        -2.81469311E-05
   48.6514816        -2.43794384E-05
   48.7529144        -2.07100929E-05
   48.8543472        -1.71604133E-05
   48.9557838        -1.37506713E-05
   49.0572166        -1.04998044E-05
   49.1586494        -7.42522934E-06
   49.2600861        -4.54270412E-06
   49.3615189        -1.86616478E-06
   49.4629517         5.92403694E-07
   49.5643883         2.82298561E-06
   49.6658211         4.81769712E-06
   49.7672539         6.57078817E-06
   49.8686905         8.07867946E-06
   49.9701233         9.33991669E-06
   50.0715561         1.03551793E-05
   50.1729927         1.11272320E-05
   50.2744255         1.16608135E-05
   50.3758583         1.19625201E-05
   50.4772949         1.20407758E-05
   50.5787277         1.19055958E-05
   50.6801605         1.15685070E-05
   50.7815971         1.10423180E-05
   50.8830299         1.03409802E-05
   50.9844627         9.47943408E-06
   51.0858994         8.47332558E-06
   51.1873322         7.33891511E-06
   51.2887688         6.09278231E-06
   51.3902016         4.75171555E-06
   51.4916344         3.33251364E-06
   51.5930710         1.85171291E-06
   51.6945038         3.25569857E-07
   51.7959366        -1.23023142E-06
   51.8973732        -2.80057816E-06
   51.9988060        -4.37124754E-06
   52.1002388        -5.92882725E-06
   52.2016754        -7.46089245E-06
   52.3031082        -8.95611629E-06
   52.4045410        -1.04042629E-05
   52.5059776        -1.17962609E-05
   52.6074104        -1.31242814E-05
   52.7088432        -1.43816496E-05
   52.8102798        -1.55629004E-05
   52.9117126        -1.66637910E-05
   53.0131454        -1.76811318E-05
   53.1145821        -1.86128964E-05
   53.2160149        -1.94579916E-05
   53.3174477        -2.02163519E-05
   53.4188843        -2.08887268E-05
   53.5203171        -2.14766151E-05
   53.6217537        -2.19822850E-05
   53.7231865        -2.24084852E-05
   53.8246193        -2.27584806E-05
   53.9260559        -2.30359237E-05
   54.0274887        -2.32447619E-05
   54.1289215        -2.33890278E-05
   54.2303581        -2.34729123E-05
   54.3317909        -2.35005355E-05
   54.4332237        -2.34758772E-05
   54.5346603        -2.34027157E-05
   54.6360931        -2.32846178E-05
   54.7375259        -2.31247395E-05
   54.8389626        -2.29259113E-05
   54.9403954        -2.26905267E-05
   55.0418282        -2.24204887E-05
   55.1432648        -2.21172777E-05
   55.2446976        -2.17818542E-05
   55.3461304        -2.14146967E-05
   55.4475670        -2.10158814E-05
   55.5489998        -2.05849774E-05
   55.6504326        -2.01212060E-05
   55.7518692        -1.96234869E-05
   55.8533020        -1.90903775E-05
   55.9547348        -1.85202971E-05
   56.0561714        -1.79115414E-05
   56.1576042        -1.72623131E-05
   56.2590408        -1.65709262E-05
   56.3604736        -1.58357616E-05
   56.4619064        -1.50554260E-05
   56.5633430        -1.42288964E-05
   56.6647758        -1.33554522E-05
   56.7662086        -1.24348562E-05
   56.8676453        -1.14674185E-05
   56.9690781        -1.04540095E-05
   57.0705109        -9.39612437E-06
   57.1719475        -8.29586406E-06
   57.2733803        -7.15605665E-06
   57.3748131        -5.98012457E-06
   57.4762497        -4.77221602E-06
   57.5776825        -3.53694736E-06
   57.6791153        -2.27956707E-06
   57.7805519        -1.00574414E-06
   57.8819847         2.78454507E-07
   57.9834175         1.56671854E-06
   58.0848541         2.85258102E-06
   58.1862869         4.12960117E-06
   58.2877197         5.39135772E-06
   58.3891563         6.63179298E-06
   58.4905891         7.84521490E-06
   58.5920219         9.02639204E-06
   58.6934586         1.01708138E-05
   58.7948914         1.12747248E-05
   58.8963280         1.23352092E-05
   58.9977608         1.33503017E-05
   59.0991936         1.43190364E-05
   59.2006302         1.52415196E-05
   59.3020630         1.61189000E-05
   59.4034958         1.69533469E-05
   59.5049324         1.77479651E-05
   59.6063652         1.85068438E-05
   59.7077980         1.92348161E-05
   59.8092346         1.99374190E-05
   59.9106674         2.06206405E-05
   60.0121002         2.12908981E-05
   60.1135368         2.19547110E-05
   60.2149696         2.26185202E-05
   60.3164024         2.32885832E-05
   60.4178391         2.39706987E-05
   60.5192719         2.46700038E-05
   60.6207047         2.53907983E-05
   60.7221413         2.61364494E-05
   60.8235741         2.69090797E-05
   60.9250069         2.77096533E-05
   61.0264435         2.85377046E-05
   61.1278763         2.93913999E-05
   61.2293091         3.02675071E-05
   61.3307457         3.11613549E-05
   61.4321785         3.20669606E-05
   61.5336151         3.29770846E-05
   61.6350479         3.38833925E-05
   61.7364807         3.47766218E-05
   61.8379173         3.56467572E-05
   61.9393501         3.64832595E-05
   62.0407829         3.72752766E-05
   62.1422195         3.80119454E-05
   62.2436523         3.86825886E-05
   62.3450851         3.92769616E-05
   62.4465218         3.97855583E-05
   62.5479546         4.01997531E-05
   62.6493874         4.05120190E-05
   62.7508240         4.07161569E-05
   62.8522568         4.08073574E-05
   62.9536896         4.07823936E-05
   63.0551262         4.06396030E-05
   63.1565590         4.03789709E-05
   63.2579918         4.00020836E-05
   63.3594284         3.95120696E-05
   63.4608612         3.89134766E-05
   63.5622940         3.82122125E-05
   63.6637306         3.74152514E-05
   63.7651634         3.65305423E-05
   63.8665962         3.55667762E-05
   63.9680328         3.45330918E-05
   64.0694656         3.34389333E-05
   64.1708984         3.22937194E-05
   64.2723312         3.11067233E-05
   64.3737717         2.98867326E-05
   64.4752045         2.86419909E-05
   64.5766373         2.73799051E-05
   64.6780701         2.61070327E-05
   64.7795029         2.48288525E-05
   64.8809357         2.35498283E-05
   64.9823761         2.22733615E-05
   65.0838089         2.10017370E-05
   65.1852417         1.97363279E-05
   65.2866745         1.84776618E-05
   65.3881073         1.72254367E-05
   65.4895477         1.59789543E-05
   65.5909805         1.47370365E-05
   65.6924133         1.34984612E-05
   65.7938461         1.22621450E-05
   65.8952789         1.10272385E-05
   65.9967117         9.79355264E-06
   66.0981522         8.56162842E-06
   66.1995850         7.33307252E-06
   66.3010178         6.11056976E-06
   66.4024506         4.89814056E-06
   66.5038834         3.70123757E-06
   66.6053162         2.52680047E-06
   66.7067566         1.38316295E-06
   66.8081894         2.80227397E-07
   66.9096222        -7.70774875E-07
   67.0110550        -1.75737568E-06
   67.1124878        -2.66603797E-06
   67.2139206        -3.48233425E-06
   67.3153610        -4.19131902E-06
   67.4167938        -4.77764479E-06
   67.5182266        -5.22602750E-06
   67.6196594        -5.52153597E-06
   67.7210922        -5.64980564E-06
   67.8225327        -5.59760565E-06
   67.9239655        -5.35293839E-06
   68.0253983        -4.90553475E-06
   68.1268311        -4.24702739E-06
   68.2282639        -3.37137953E-06
   68.3296967        -2.27492251E-06
   68.4311371        -9.56747158E-07
   68.5325699         5.81284212E-07
   68.6340027         2.33435912E-06
   68.7354355         4.29467036E-06
   68.8368683         6.45145246E-06
   68.9383011         8.79105392E-06
   69.0397415         1.12969492E-05
   69.1411743         1.39501517E-05
   69.2426071         1.67290218E-05
   69.3440399         1.96099354E-05
   69.4454727         2.25673593E-05
   69.5469055         2.55741124E-05
   69.6483459         2.86019567E-05
   69.7497787         3.16218320E-05
   69.8512115         3.46043053E-05
   69.9526443         3.75198942E-05
   70.0540771         4.03397207E-05
   70.1555099         4.30356631E-05
   70.2569504         4.55809459E-05
   70.3583832         4.79504160E-05
   70.4598160         5.01211252E-05
   70.5612488         5.20723806E-05
   70.6626816         5.37862361E-05
   70.7641220         5.52477686E-05
   70.8655548         5.64452930E-05
   70.9669876         5.73705220E-05
   71.0684204         5.80187079E-05
   71.1698532         5.83888250E-05
   71.2712860         5.84835725E-05
   71.3727264         5.83092879E-05
   71.4741592         5.78761465E-05
   71.5755920         5.71977362E-05
   71.6770248         5.62911591E-05
   71.7784576         5.51767698E-05
   71.8798904         5.38778040E-05
   71.9813309         5.24203097E-05
   72.0827637         5.08327066E-05
   72.1841965         4.91454593E-05
   72.2856293         4.73907203E-05
   72.3870621         4.56019770E-05
   72.4884949         4.38135830E-05
   72.5899353         4.20604520E-05
   72.6913681         4.03774538E-05
   72.7928009         3.87992441E-05
   72.8942337         3.73596122E-05
   72.9956665         3.60912527E-05
   73.0971069         3.50252776E-05
   73.1985397         3.41909035E-05
   73.2999725         3.36150806E-05
   73.4014053         3.33222270E-05
   73.5028381         3.33340031E-05
   73.6042709         3.36690937E-05
   73.7057114         3.43428474E-05
   73.8071442         3.53673968E-05
   73.9085770         3.67513603E-05
   74.0100098         3.84998784E-05
   74.1114426         4.06145191E-05
   74.2128754         4.30934415E-05
   74.3143158         4.59312614E-05
   74.4157486         4.91192877E-05
   74.5171814         5.26457661E-05
   74.6186142         5.64956972E-05
   74.7200470         6.06514695E-05
   74.8214798         6.50928268E-05
   74.9229202         6.97972137E-05
   75.0243530         7.47399536E-05
   75.1257858         7.98946276E-05
   75.2272186         8.52333324E-05
   75.3286514         9.07269350E-05
   75.4300842         9.63453203E-05
   75.5315247         1.02057769E-04
   75.6329575         1.07833293E-04
   75.7343903         1.13640730E-04
   75.8358231         1.19449098E-04
   75.9372559         1.25227889E-04
   76.0386963         1.30947243E-04
   76.1401291         1.36578223E-04
   76.2415619         1.42092860E-04
   76.3429947         1.47464525E-04
   76.4444275         1.52667926E-04
   76.5458603         1.57679315E-04
   76.6473007         1.62476586E-04
   76.7487335         1.67039310E-04
   76.8501663         1.71349006E-04
   76.9515991         1.75388981E-04
   77.0530319         1.79144423E-04
   77.1544647         1.82602555E-04
   77.2559052         1.85752462E-04
   77.3573380         1.88585153E-04
   77.4587708         1.91093524E-04
   77.5602036         1.93272237E-04