  -4.50000000         0.00000000    
  -4.39856577         0.00000000    
  -4.29713154         0.00000000    
  -4.19569778         0.00000000    
  -4.09426355         0.00000000    
  -3.99282932         0.00000000    
  -3.89139533         0.00000000    
  -3.78996110         0.00000000    
  -3.68852711         1.00963049E-34
  -3.58709288         2.36806505E-34
  -3.48565888        -5.31544678E-34
  -3.38422465        -4.60533083E-33
  -3.28279042        -3.89645885E-31
  -3.18135643        -5.84886727E-31
  -3.07992220        -2.71040673E-30
  -2.97848821        -1.80870100E-29
  -2.87705398        -9.36440945E-29
  -2.77561998        -3.15610301E-28
  -2.67418575        -8.06896854E-28
  -2.57275176        -1.61981301E-27
  -2.47131753        -2.53458024E-27
  -2.36988354        -2.72741763E-27
  -2.26844931        -4.81793861E-28
  -2.16701531         6.62821424E-27
  -2.06558108         2.05121816E-26
  -1.96414697         3.99963634E-26
  -1.86271286         5.78035178E-26
  -1.76127875         6.02670072E-26
  -1.65984464         3.58356583E-26
  -1.55841053         1.83655626E-29
  -1.45697629         4.15186092E-26
  -1.35554218         3.83325953E-25
  -1.25410807         1.43167052E-24
  -1.15267396         3.75825641E-24
  -1.05123985         7.93791365E-24
 -0.949805737         1.41636678E-23
 -0.848371625         2.16062028E-23
 -0.746937513         2.75912432E-23
 -0.645503342         2.68324253E-23
 -0.544069231         1.11444620E-23
 -0.442635119        -2.97993469E-23
 -0.341201007        -1.06106272E-22
 -0.239766881        -2.23387056E-22
 -0.138332769        -3.76789604E-22
  -3.68986391E-02    -5.44379203E-22
   6.45354837E-02    -6.81829419E-22
  0.165969610        -7.21165583E-22
  0.267403722        -5.76574371E-22
  0.368837833        -1.59688192E-22
  0.470271975         5.94998830E-22
  0.571706116         1.69685460E-21
  0.673140228         3.06398342E-21
  0.774574339         4.49606833E-21
  0.876008451         5.66766344E-21
  0.977442563         6.15454809E-21
   1.07887673         5.50206010E-21
   1.18031085         3.33608222E-21
   1.28174496        -4.94997621E-22
   1.38317907        -5.77366857E-21
   1.48461318        -1.18019351E-20
   1.58604729        -1.73731242E-20
   1.68748140        -2.08720723E-20
   1.78891551        -2.05327279E-20
   1.89034963        -1.48505464E-20
   1.99178374        -3.10271954E-21
   2.09321785         1.41184253E-20
   2.19465208         3.44960811E-20
   2.29608607         5.38622049E-20
   2.39752030         6.64989946E-20
   2.49895430         6.59598603E-20
   2.60038853         4.64031037E-20
   2.70182276         4.29897397E-21
   2.80325675        -5.97688011E-20
   2.90469098        -1.39612229E-19
   3.00612497        -2.22726057E-19
   3.10755920        -2.90803513E-19
   3.20899320        -3.21789311E-19
   3.31042743        -2.93546728E-19
   3.41186142        -1.88868456E-19
   3.51329565        -1.18842458E-21
   3.61472964         2.59996515E-19
   3.71616387         5.65239913E-19
   3.81759810         8.64103525E-19
   3.91903210         1.08811536E-18
   4.02046633         1.15843243E-18
   4.12190056         9.98258727E-19
   4.22333431         5.49175600E-19
   4.32476854        -2.10416627E-19
   4.42620277        -1.24747687E-18
   4.52763700        -2.46056371E-18
   4.62907076        -3.67395826E-18
   4.73050499        -4.64324685E-18
   4.83193922        -5.07513770E-18
   4.93337345        -4.66266739E-18
   5.03480768        -3.13471880E-18
   5.13624144        -3.15978341E-19
   5.23767567         3.80948932E-18
   5.33910990         9.04067712E-18
   5.44054413         1.49195440E-17
   5.54197788         2.07205286E-17
   5.64341211         2.54803574E-17
   5.74484634         2.80753868E-17
   5.84628057         2.73478583E-17
   5.94771433         2.22749664E-17
   6.04914856         1.21661088E-17
   6.15058279        -3.13463712E-18
   6.25201702        -2.30701483E-17
   6.35345125        -4.62489915E-17
   6.45488501        -7.04131144E-17
   6.55631924        -9.25207206E-17
   6.65775347        -1.08959883E-16
   6.75918770        -1.15893510E-16
   6.86062145        -1.09719255E-16
   6.96205568        -8.76098155E-17
   7.06348991        -4.80826954E-17
   7.16492414         8.46413637E-18
   7.26635790         7.93225444E-17
   7.36779213         1.59223480E-16
   7.46922636         2.40332761E-16
   7.57066059         3.12549096E-16
   7.67209482         3.64139146E-16
   7.77352858         3.82720349E-16
   7.87496281         3.56563893E-16
   7.97639704         2.76156458E-16
   8.07783127         1.35909904E-16
   8.17926502        -6.41338408E-17
   8.28069973        -3.16802604E-16
   8.38213348        -6.06724300E-16
   8.48356724        -9.09932873E-16
   8.58500195        -1.19438443E-15
   8.68643570        -1.42156237E-15
   8.78787041        -1.54927461E-15
   8.88930416        -1.53561483E-15
   8.99073792        -1.34390872E-15
   9.09217262        -9.48289383E-16
   9.19360638        -3.39379844E-16
   9.29504013         4.70583500E-16
   9.39647484         1.44393177E-15
   9.49790859         2.51581703E-15
   9.59934330         3.59519069E-15
   9.70077705         4.56899397E-15
   9.80221081         5.30973953E-15
   9.90364552         5.68630201E-15
   10.0050793         5.57733460E-15
   10.1065140         4.88630268E-15
   10.2079477         3.55680866E-15
   10.3093815         1.58657773E-15
   10.4108162        -9.61609823E-16
   10.5122499        -3.95369399E-15
   10.6136837        -7.18424462E-15
   10.7151184        -1.03835016E-14
   10.8165522        -1.32319430E-14
   10.9179869        -1.53821285E-14
   11.0194206        -1.64867746E-14
   11.1208544        -1.62313281E-14
   11.2222891        -1.43686248E-14
   11.3237228        -1.07528452E-14
   11.4251575        -5.36955319E-15
   11.5265913         1.64116668E-15
   11.6280251         9.97143025E-15
   11.7294598         1.91442897E-14
   11.8308935         2.85260334E-14
   11.9323273         3.73525606E-14
   12.0337620         4.47693471E-14
   12.1351957         4.98833322E-14
   12.2366304         5.18242099E-14
   12.3380642         4.98117715E-14
   12.4394979         4.32251755E-14
   12.5409327         3.16699724E-14
   12.6423664         1.50382890E-14
   12.7438011        -6.44213915E-15
   12.8452349        -3.21737537E-14
   12.9466686        -6.11733022E-14
   13.0481033        -9.20769401E-14
   13.1495371        -1.23168104E-13
   13.2509708        -1.52429312E-13
   13.3524055        -1.77617469E-13
   13.4538393        -1.96362214E-13
   13.5552740        -2.06285130E-13
   13.6567078        -2.05136689E-13
   13.7581415        -1.90946000E-13
   13.8595762        -1.62178430E-13
   13.9610100        -1.17893759E-13
   14.0624447        -5.78957726E-14
   14.1638784         1.71339654E-14
   14.2653122         1.05530527E-13
   14.3667469         2.04577552E-13
   14.4681807         3.10486771E-13
   14.5696154         4.18436228E-13
   14.6710491         5.22673755E-13
   14.7724829         6.16693274E-13
   14.8739176         6.93484658E-13
   14.9753513         7.45858778E-13
   15.0767851         7.66836844E-13
   15.1782198         7.50098063E-13
   15.2796535         6.90461414E-13
   15.3810883         5.84383507E-13
   15.4825220         4.30437858E-13
   15.5839558         2.29743064E-13
   15.6853905        -1.36959036E-14
   15.7868242        -2.92774106E-13
   15.8882589        -5.97236724E-13
   15.9896927        -9.13821644E-13
   16.0911274        -1.22661928E-12
   16.1925602        -1.51765666E-12
   16.2939949        -1.76770642E-12
   16.3954296        -1.95729305E-12
   16.4968624        -2.06786541E-12
   16.5982971        -2.08308132E-12
   16.6997318        -1.99012204E-12
   16.8011646        -1.78097359E-12
   16.9025993        -1.45357684E-12
   17.0040340        -1.01275488E-12
   17.1054688        -4.70833550E-13
   17.2069016         1.52121520E-13
   17.3083363         8.28516238E-13
   17.4097710         1.52393484E-12
   17.5112038         2.19835023E-12
   17.6126385         2.80784077E-12
   17.7140732         3.30677521E-12
   17.8155060         3.65038338E-12
   17.9169407         3.79761543E-12
   18.0183754         3.71417870E-12
   18.1198101         3.37556155E-12
   18.2212429         2.76989499E-12
   18.3226776         1.90043142E-12
   18.4241123         7.87488401E-13
   18.5255451        -5.30390998E-13
   18.6269798        -1.99619054E-12
   18.7284145        -3.53523764E-12
   18.8298473        -5.05718254E-12
   18.9312820        -6.45919125E-12
   19.0327168        -7.63030784E-12
   19.1341496        -8.45688710E-12
   19.2355843        -8.82893585E-12
   19.3370190        -8.64710734E-12
   19.4384537        -7.83001008E-12
   19.5398865        -6.32148500E-12
   19.6413212        -4.09742986E-12
   19.7427559        -1.17169371E-12
   19.8441887         2.39935741E-12
   19.9456234         6.51398683E-12
   20.0470581         1.10243802E-11
   20.1484909         1.57383117E-11
   20.2499256         2.04234112E-11
   20.3513603         2.48140519E-11
   20.4527931         2.86208644E-11
   20.5542278         3.15426782E-11
   20.6556625         3.32805034E-11
   20.7570972         3.35531429E-11
   20.8585300         3.21138532E-11
   20.9599648         2.87671987E-11
   21.0613995         2.33855418E-11
   21.1628323         1.59240381E-11
   21.2642670         6.43335515E-12
   21.3657017        -4.93060367E-12
   21.4671345        -1.79012152E-11
   21.5685692        -3.21001073E-11
   21.6700039        -4.70415755E-11
   21.7714367        -6.21425827E-11
   21.8728714        -7.67384836E-11
   21.9743061        -9.01042713E-11
   22.0757408        -1.01481261E-10
   22.1771736        -1.10107666E-10
   22.2786083        -1.15253106E-10
   22.3800430        -1.16254582E-10
   22.4814758        -1.12553369E-10
   22.5829105        -1.03730469E-10
   22.6843452        -8.95394314E-11
   22.7857780        -6.99342251E-11
   22.8872128        -4.50912016E-11
   22.9886475        -1.54228644E-11
   23.0900803         1.84168288E-11
   23.1915150         5.55375121E-11
   23.2929497         9.48272710E-11
   23.3943844         1.34978792E-10
   23.4958172         1.74525061E-10
   23.5972519         2.11884912E-10
   23.6986866         2.45416965E-10
   23.8001194         2.73480155E-10
   23.9015541         2.94499564E-10
   24.0029888         3.07034398E-10
   24.1044216         3.09846176E-10
   24.2058563         3.01964398E-10
   24.3072910         2.82745855E-10
   24.4087238         2.51926369E-10
   24.5101585         2.09660164E-10
   24.6115932         1.56545651E-10
   24.7130280         9.36349331E-11
   24.8144608         2.24259049E-11
   24.9158955        -5.51662431E-11
   25.0173302        -1.36853806E-10
   25.1187630        -2.20042692E-10
   25.2201977        -3.01913800E-10
   25.3216324        -3.79519055E-10
   25.4230652        -4.49890680E-10
   25.5244999        -5.10154474E-10
   25.6259346        -5.57649205E-10
   25.7273674        -5.90042293E-10
   25.8288021        -6.05438866E-10
   25.9302368        -6.02477346E-10
   26.0316715        -5.80410553E-10
   26.1331043        -5.39163547E-10
   26.2345390        -4.79367268E-10
   26.3359737        -4.02365280E-10
   26.4374065        -3.10190873E-10
   26.5388412        -2.05515036E-10
   26.6402760        -9.15643256E-11
   26.7417088         2.79846511E-11
   26.8431435         1.49139701E-10
   26.9445782         2.67742384E-10
   27.0460110         3.79635268E-10
   27.1474457         4.80834539E-10
   27.2488804         5.67704217E-10
   27.3503151         6.37125130E-10
   27.4517479         6.86648516E-10
   27.5531826         7.14627413E-10
   27.6546173         7.20320525E-10
   27.7560501         7.03956504E-10
   27.8574848         6.66760813E-10
   27.9589195         6.10933526E-10
   28.0603523         5.39581047E-10
   28.1617870         4.56599203E-10
   28.2632217         3.66509462E-10
   28.3646545         2.74255146E-10
   28.4660892         1.84961782E-10
   28.5675240         1.03671724E-10
   28.6689587         3.50668383E-11
   28.7703915        -1.68127560E-11
   28.8718262        -4.88337669E-11
   28.9732609        -5.90130930E-11
   29.0746937        -4.67133311E-11
   29.1761284        -1.27869902E-11
   29.2775631         4.03457129E-11
   29.3789959         1.08694276E-10
   29.4804306         1.86778787E-10
   29.5818653         2.67795203E-10
   29.6832981         3.43857914E-10
   29.7847328         4.06330830E-10
   29.8861675         4.46216203E-10
   29.9876022         4.54605742E-10
   30.0890350         4.23168361E-10
   30.1904697         3.44653556E-10
   30.2919044         2.13398174E-10
   30.3933372         2.57965940E-11
   30.4947720        -2.19269491E-10
   30.5962067        -5.20086030E-10
   30.6976395        -8.71853756E-10
   30.7990742        -1.26655064E-09
   30.9005089        -1.69293357E-09
   31.0019417        -2.13667395E-09
   31.1033764        -2.58064814E-09
   31.2048111        -3.00538283E-09
   31.3062458        -3.38963169E-09
   31.4076786        -3.71108855E-09
   31.5091133        -3.94720967E-09
   31.6105480        -4.07611900E-09
   31.7119808        -4.07757028E-09
   31.8134155        -3.93391630E-09
   31.9148502        -3.63107278E-09
   32.0162849        -3.15941873E-09
   32.1177177        -2.51457610E-09
   32.2191505        -1.69808556E-09
   32.3205872        -7.17878867E-10
   32.4220200         4.11444212E-10
   32.5234528         1.66855507E-09
   32.6248894         3.02560288E-09
   32.7263222         4.44864856E-09
   32.8277550         5.89836624E-09
   32.9291916         7.33097139E-09
   33.0306244         8.69936567E-09
   33.1320610         9.95447724E-09
   33.2334938         1.10467315E-08
   33.3349266         1.19276313E-08
   33.4363632         1.25513839E-08
   33.5377960         1.28765372E-08
   33.6392288         1.28675257E-08
   33.7406654         1.24961081E-08
   33.8420982         1.17426833E-08
   33.9435310         1.05973088E-08
   34.0449677         9.06052477E-09
   34.1464005         7.14383264E-09
   34.2478333         4.86994445E-09
   34.3492699         2.27258701E-09
   34.4507027        -6.03929573E-10
   34.5521355        -3.70551478E-09
   34.6535721        -6.96939528E-09
   34.7550049        -1.03254756E-08
   34.8564377        -1.36979468E-08
   34.9578743        -1.70070678E-08
   35.0593071        -2.01711057E-08
   35.1607399        -2.31083082E-08
   35.2621765        -2.57389630E-08
   35.3636093        -2.79873067E-08
   35.4650421        -2.97834681E-08
   35.5664787        -3.10651416E-08
   35.6679115        -3.17790700E-08
   35.7693481        -3.18824007E-08
   35.8707809        -3.13435891E-08
   35.9722137        -3.01431911E-08
   36.0736504        -2.82742025E-08
   36.1750832        -2.57421959E-08
   36.2765160        -2.25651657E-08
   36.3779526        -1.87730649E-08
   36.4793854        -1.44071279E-08
   36.5808182        -9.51903179E-09
   36.6822548        -4.16985380E-09
   36.7836876         1.57100399E-09
   36.8851204         7.62707053E-09
   36.9865570         1.39160123E-08
   37.0879898         2.03507948E-08
   37.1894226         2.68408726E-08
   37.2908592         3.32932295E-08
   37.3922920         3.96134006E-08
   37.4937248         4.57062974E-08
   37.5951614         5.14769773E-08
   37.6965942         5.68313041E-08
   37.7980270         6.16764524E-08
   37.8994637         6.59213555E-08
   38.0008965         6.94771387E-08
   38.1023293         7.22574285E-08
   38.2037659         7.41787574E-08
   38.3051987         7.51608979E-08
   38.4066353         7.51274030E-08
   38.5080681         7.40060386E-08
   38.6095009         7.17297013E-08
   38.7109375         6.82370853E-08
   38.8123703         6.34739123E-08
   38.9138031         5.73941854E-08
   39.0152397         4.99617236E-08
   39.1166725         4.11519920E-08
   39.2181053         3.09540162E-08
   39.3195419         1.93727203E-08
   39.4209747         6.43123466E-09
   39.5224075        -7.82643372E-09
   39.6238441        -2.33327597E-08
   39.7252769        -3.99939317E-08
   39.8267097        -5.76870391E-08
   39.9281464        -7.62573933E-08
   40.0295792        -9.55158441E-08
   40.1310120        -1.15236375E-07
   40.2324486        -1.35153783E-07
   40.3338814        -1.54961981E-07
   40.4353142        -1.74311921E-07
   40.5367508        -1.92810973E-07
   40.6381836        -2.10021753E-07
   40.7396202        -2.25462102E-07
   40.8410530        -2.38605281E-07
   40.9424858        -2.48880838E-07
   41.0439224        -2.55676412E-07
   41.1453552        -2.58339298E-07
   41.2467880        -2.56180073E-07
   41.3482246        -2.48475146E-07
   41.4496574        -2.34472381E-07
   41.5510902        -2.13394827E-07
   41.6525269        -1.84447558E-07
   41.7539597        -1.46823552E-07
   41.8553925        -9.97114995E-08
   41.9568291        -4.23036006E-08
   42.0582619         2.61954245E-08
   42.1596947         1.06559128E-07
   42.2611313         1.99529055E-07
   42.3625641         3.05804576E-07
   42.4639969         4.26031562E-07
   42.5654335         5.60791875E-07
   42.6668663         7.10591678E-07
   42.7682991         8.75850333E-07
   42.8697357         1.05689003E-06
   42.9711685         1.25392546E-06
   43.0726013         1.46705383E-06
   43.1740379         1.69624593E-06
   43.2754707         1.94133963E-06
   43.3769073         2.20203356E-06
   43.4783401         2.47788103E-06
   43.5797729         2.76828951E-06
   43.6812096         3.07251821E-06
   43.7826424         3.38967880E-06
   43.8840752         3.71874216E-06
   43.9855118         4.05853643E-06
   44.0869446         4.40776330E-06
   44.1883774         4.76500236E-06
   44.2898140         5.12872475E-06
   44.3912468         5.49730612E-06
   44.4926796         5.86904389E-06
   44.5941162         6.24217137E-06
   44.6955490         6.61488048E-06
   44.7969818         6.98533586E-06
   44.8984184         7.35169715E-06
   44.9998512         7.71213945E-06
   45.1012840         8.06487151E-06
   45.2027206         8.40815574E-06
   45.3041534         8.74032776E-06
   45.4055862         9.05980960E-06
   45.5070229         9.36513152E-06
   45.6084557         9.65494382E-06
   45.7098885         9.92802143E-06
   45.8113251         1.01832866E-05
   45.9127579         1.04198034E-05
   46.0141945         1.06367961E-05
   46.1156273         1.08336453E-05
   46.2170601         1.10098863E-05
   46.3184967         1.11652125E-05
   46.4199295         1.12994767E-05
   46.5213623         1.14126769E-05
   46.6227989         1.15049543E-05
   46.7242317         1.15766052E-05
   46.8256645         1.16280280E-05
   46.9271011         1.16597739E-05
   47.0285339         1.16724932E-05
   47.1299667         1.16669462E-05
   47.2314034         1.16439951E-05
   47.3328362         1.16045958E-05
   47.4342690         1.15497878E-05
   47.5357056         1.14806853E-05
   47.6371384         1.13984743E-05
   47.7385712         1.13043998E-05
   47.8400078         1.11997742E-05
   47.9414406         1.10859473E-05
   48.0428734         1.09643061E-05
   48.1443100         1.08362801E-05
   48.2457428         1.07033275E-05
   48.3471756         1.05668996E-05
   48.4486122         1.04284718E-05
   48.5500450         1.02894874E-05
   48.6514816         1.01513906E-05
   48.7529144         1.00155676E-05
   48.8543472         9.88336978E-06
   48.9557838         9.75607873E-06
   49.0572166         9.63488947E-06
   49.1586494         9.52089613E-06
   49.2600861         9.41508551E-06
   49.3615189         9.31830982E-06
   49.4629517         9.23128209E-06
   49.5643883         9.15455985E-06
   49.6658211         9.08852962E-06
   49.7672539         9.03340697E-06
   49.8686905         8.98923281E-06
   49.9701233         8.95584890E-06
   50.0715561         8.93292599E-06
   50.1729927         8.91997297E-06
   50.2744255         8.91628588E-06
   50.3758583         8.92105163E-06
   50.4772949         8.93328252E-06
   50.5787277         8.95185349E-06
   50.6801605         8.97556129E-06
   50.7815971         9.00312716E-06
   50.8830299         9.03317687E-06
   50.9844627         9.06433706E-06
   51.0858994         9.09522532E-06
   51.1873322         9.12448559E-06
   51.2887688         9.15082455E-06
   51.3902016         9.17302077E-06
   51.4916344         9.18997011E-06
   51.5930710         9.20070397E-06
   51.6945038         9.20439288E-06
   51.7959366         9.20041020E-06
   51.8973732         9.18828664E-06
   51.9988060         9.16778208E-06
   52.1002388         9.13884287E-06
   52.2016754         9.10162453E-06
   52.3031082         9.05650631E-06
   52.4045410         9.00407304E-06
   52.5059776         8.94509776E-06
   52.6074104         8.88054183E-06
   52.7088432         8.81152391E-06
   52.8102798         8.73933550E-06
   52.9117126         8.66537175E-06
   53.0131454         8.59115789E-06
   53.1145821         8.51828736E-06
   53.2160149         8.44839178E-06
   53.3174477         8.38316464E-06
   53.4188843         8.32428759E-06
   53.5203171         8.27340227E-06
   53.6217537         8.23212304E-06
   53.7231865         8.20198056E-06
   53.8246193         8.18442277E-06
   53.9260559         8.18075478E-06
   54.0274887         8.19215984E-06
   54.1289215         8.21967205E-06
   54.2303581         8.26415271E-06
   54.3317909         8.32627757E-06
   54.4332237         8.40654502E-06
   54.5346603         8.50522883E-06
   54.6360931         8.62244087E-06
   54.7375259         8.75803471E-06
   54.8389626         8.91170203E-06
   54.9403954         9.08287893E-06
   55.0418282         9.27082965E-06
   55.1432648         9.47462468E-06
   55.2446976         9.69310440E-06
   55.3461304         9.92495552E-06
   55.4475670         1.01686946E-05
   55.5489998         1.04226474E-05
   55.6504326         1.06850066E-05
   55.7518692         1.09538269E-05
   55.8533020         1.12270372E-05
   55.9547348         1.15024532E-05
   56.0561714         1.17777981E-05
   56.1576042         1.20507239E-05
   56.2590408         1.23188120E-05
   56.3604736         1.25796005E-05
   56.4619064         1.28306101E-05
   56.5633430         1.30693479E-05
   56.6647758         1.32933346E-05
   56.7662086         1.35001383E-05
   56.8676453         1.36873568E-05
   56.9690781         1.38526839E-05
   57.0705109         1.39938929E-05
   57.1719475         1.41089131E-05
   57.2733803         1.41957835E-05
   57.3748131         1.42527479E-05
   57.4762497         1.42781955E-05
   57.5776825         1.42707795E-05
   57.6791153         1.42293720E-05
   57.7805519         1.41531182E-05
   57.8819847         1.40414440E-05
   57.9834175         1.38941077E-05
   58.0848541         1.37111510E-05
   58.1862869         1.34930060E-05
   58.2877197         1.32404703E-05
   58.3891563         1.29546706E-05
   58.4905891         1.26371306E-05
   58.5920219         1.22897709E-05
   58.6934586         1.19148699E-05
   58.7948914         1.15150942E-05
   58.8963280         1.10934297E-05
   58.9977608         1.06532207E-05
   59.0991936         1.01981286E-05
   59.2006302         9.73208353E-06
   59.3020630         9.25926452E-06
   59.4034958         8.78401443E-06
   59.5049324         8.31086163E-06
   59.6063652         7.84445092E-06
   59.7077980         7.38944209E-06
   59.8092346         6.95047356E-06
   59.9106674         6.53219922E-06
   60.0121002         6.13905604E-06
   60.1135368         5.77536866E-06
   60.2149696         5.44523982E-06
   60.3164024         5.15245483E-06
   60.4178391         4.90050525E-06
   60.5192719         4.69251108E-06
   60.6207047         4.53118309E-06
   60.7221413         4.41877955E-06
   60.8235741         4.35715265E-06
   60.9250069         4.34762160E-06
   61.0264435         4.39104087E-06
   61.1278763         4.48775791E-06
   61.2293091         4.63759989E-06
   61.3307457         4.83993290E-06
   61.4321785         5.09360643E-06
   61.5336151         5.39702796E-06
   61.6350479         5.74813021E-06
   61.7364807         6.14440114E-06
   61.8379173         6.58293629E-06
   61.9393501         7.06043284E-06
   62.0407829         7.57323596E-06
   62.1422195         8.11735572E-06
   62.2436523         8.68849747E-06
   62.3450851         9.28210557E-06
   62.4465218         9.89338150E-06
   62.5479546         1.05173076E-05
   62.6493874         1.11487343E-05
   62.7508240         1.17823492E-05
   62.8522568         1.24127682E-05
   62.9536896         1.30345388E-05
   63.0551262         1.36422286E-05
   63.1565590         1.42304416E-05
   63.2579918         1.47938617E-05
   63.3594284         1.53273068E-05
   63.4608612         1.58258354E-05
   63.5622940         1.62846991E-05
   63.6637306         1.66994851E-05
   63.7651634         1.70661206E-05
   63.8665962         1.73809458E-05
   63.9680328         1.76407921E-05
   64.0694656         1.78429564E-05
   64.1708984         1.79853414E-05
   64.2723312         1.80663919E-05
   64.3737717         1.80852221E-05
   64.4752045         1.80415773E-05
   64.5766373         1.79358758E-05
   64.6780701         1.77692473E-05
   64.7795029         1.75434852E-05
   64.8809357         1.72610125E-05
   64.9823761         1.69249615E-05
   65.0838089         1.65390375E-05
   65.1852417         1.61075495E-05
   65.2866745         1.56353017E-05
   65.3881073         1.51275617E-05
   65.4895477         1.45900076E-05
   65.5909805         1.40286347E-05
   65.6924133         1.34496750E-05
   65.7938461         1.28595484E-05
   65.8952789         1.22647325E-05
   65.9967117         1.16717183E-05
   66.0981522         1.10869632E-05
   66.1995850         1.05167328E-05
   66.3010178         9.96711333E-06
   66.4024506         9.44388921E-06
   66.5038834         8.95253652E-06
   66.6053162         8.49810385E-06
   66.7067566         8.08528512E-06
   66.8081894         7.71825034E-06
   66.9096222         7.40071027E-06
   67.0110550         7.13585405E-06
   67.1124878         6.92639242E-06
   67.2139206         6.77446360E-06
   67.3153610         6.68171106E-06
   67.4167938         6.64922891E-06
   67.5182266         6.67761151E-06
   67.6196594         6.76694845E-06
   67.7210922         6.91683636E-06
   67.8225327         7.12640713E-06
   67.9239655         7.39430106E-06
   68.0253983         7.71873874E-06
   68.1268311         8.09751873E-06
   68.2282639         8.52800713E-06
   68.3296967         9.00719715E-06
   68.4311371         9.53171093E-06
   68.5325699         1.00978250E-05
   68.6340027         1.07014766E-05
   68.7354355         1.13383085E-05
   68.8368683         1.20037166E-05
   68.9383011         1.26928035E-05
   69.0397415         1.34005550E-05
   69.1411743         1.41216560E-05
   69.2426071         1.48508061E-05
   69.3440399         1.55825292E-05
   69.4454727         1.63113436E-05
   69.5469055         1.70318363E-05
   69.6483459         1.77385955E-05
   69.7497787         1.84264554E-05
   69.8512115         1.90903320E-05
   69.9526443         1.97254922E-05
   70.0540771         2.03274831E-05
   70.1555099         2.08922083E-05
   70.2569504         2.14160118E-05
   70.3583832         2.18957539E-05
   70.4598160         2.23287152E-05
   70.5612488         2.27128294E-05
   70.6626816         2.30465612E-05
   70.7641220         2.33289393E-05
   70.8655548         2.35596854E-05
   70.9669876         2.37390559E-05
   71.0684204         2.38679331E-05
   71.1698532         2.39478468E-05
   71.2712860         2.39807468E-05
   71.3727264         2.39692199E-05
   71.4741592         2.39162764E-05
   71.5755920         2.38253415E-05
   71.6770248         2.37001914E-05
   71.7784576         2.35449061E-05
   71.8798904         2.33637875E-05
   71.9813309         2.31612794E-05
   72.0827637         2.29419202E-05
   72.1841965         2.27102191E-05
   72.2856293         2.24706619E-05
   72.3870621         2.22275430E-05
   72.4884949         2.19850263E-05
   72.5899353         2.17469424E-05
   72.6913681         2.15168948E-05
   72.7928009         2.12980212E-05
   72.8942337         2.10931448E-05
   72.9956665         2.09045902E-05
   73.0971069         2.07342418E-05
   73.1985397         2.05835167E-05
   73.2999725         2.04532935E-05
   73.4014053         2.03440195E-05
   73.5028381         2.02556166E-05
   73.6042709         2.01874227E-05
   73.7057114         2.01384319E-05
   73.8071442         2.01070907E-05
   73.9085770         2.00914074E-05
   74.0100098         2.00889808E-05
   74.1114426         2.00970080E-05
   74.2128754         2.01122712E-05
   74.3143158         2.01312832E-05
   74.4157486         2.01502335E-05
   74.5171814         2.01649927E-05
   74.6186142         2.01712555E-05
   74.7200470         2.01645034E-05
   74.8214798         2.01401144E-05
   74.9229202         2.00932955E-05
   75.0243530         2.00193081E-05
   75.1257858         1.99133228E-05
   75.2272186         1.97706868E-05
   75.3286514         1.95867942E-05
   75.4300842         1.93573051E-05
   75.5315247         1.90780793E-05
   75.6329575         1.87453643E-05
   75.7343903         1.83557931E-05
   75.8358231         1.79065337E-05
   75.9372559         1.73951703E-05
   76.0386963         1.68200750E-05
   76.1401291         1.61801963E-05
   76.2415619         1.54753070E-05
   76.3429947         1.47059382E-05
   76.4444275         1.38734640E-05
   76.5458603         1.29802702E-05
   76.6473007         1.20295008E-05
   76.7487335         1.10254277E-05
   76.8501663         9.97313236E-06
   76.9515991         8.87866372E-06
   77.0530319         7.74906403E-06
   77.1544647         6.59213356E-06
   77.2559052         5.41649115E-06
   77.3573380         4.23155689E-06
   77.4587708         3.04742662E-06
   77.5602036         1.87462069E-06