  -4.50000000         0.00000000    
  -4.39856577         0.00000000    
  -4.29713154         0.00000000    
  -4.19569778         0.00000000    
  -4.09426355         0.00000000    
  -3.99282932         0.00000000    
  -3.89139533         0.00000000    
  -3.78996110         0.00000000    
  -3.68852711         0.00000000    
  -3.58709288         0.00000000    
  -3.48565888         0.00000000    
  -3.38422465         0.00000000    
  -3.28279042         0.00000000    
  -3.18135643         0.00000000    
  -3.07992220         0.00000000    
  -2.97848821         0.00000000    
  -2.87705398         0.00000000    
  -2.77561998         0.00000000    
  -2.67418575         0.00000000    
  -2.57275176         0.00000000    
  -2.47131753         0.00000000    
  -2.36988354         0.00000000    
  -2.26844931         0.00000000    
  -2.16701531         0.00000000    
  -2.06558108         0.00000000    
  -1.96414697         0.00000000    
  -1.86271286         0.00000000    
  -1.76127875         0.00000000    
  -1.65984464         0.00000000    
  -1.55841053         0.00000000    
  -1.45697629         0.00000000    
  -1.35554218         0.00000000    
  -1.25410807         0.00000000    
  -1.15267396         0.00000000    
  -1.05123985         0.00000000    
 -0.949805737         0.00000000    
 -0.848371625         0.00000000    
 -0.746937513         0.00000000    
 -0.645503342         0.00000000    
 -0.544069231         0.00000000    
 -0.442635119         0.00000000    
 -0.341201007         0.00000000    
 -0.239766881         0.00000000    
 -0.138332769         0.00000000    
  -3.68986391E-02     0.00000000    
   6.45354837E-02     0.00000000    
  0.165969610         0.00000000    
  0.267403722         0.00000000    
  0.368837833         0.00000000    
  0.470271975         0.00000000    
  0.571706116         0.00000000    
  0.673140228         0.00000000    
  0.774574339         0.00000000    
  0.876008451         0.00000000    
  0.977442563         0.00000000    
   1.07887673         0.00000000    
   1.18031085         0.00000000    
   1.28174496         0.00000000    
   1.38317907         0.00000000    
   1.48461318         0.00000000    
   1.58604729         0.00000000    
   1.68748140         0.00000000    
   1.78891551         0.00000000    
   1.89034963         0.00000000    
   1.99178374         0.00000000    
   2.09321785         0.00000000    
   2.19465208         0.00000000    
   2.29608607         0.00000000    
   2.39752030         0.00000000    
   2.49895430         0.00000000    
   2.60038853         0.00000000    
   2.70182276         0.00000000    
   2.80325675         0.00000000    
   2.90469098         0.00000000    
   3.00612497         0.00000000    
   3.10755920         0.00000000    
   3.20899320         0.00000000    
   3.31042743         0.00000000    
   3.41186142         0.00000000    
   3.51329565         0.00000000    
   3.61472964         0.00000000    
   3.71616387         0.00000000    
   3.81759810         0.00000000    
   3.91903210         0.00000000    
   4.02046633         0.00000000    
   4.12190056         0.00000000    
   4.22333431         0.00000000    
   4.32476854         0.00000000    
   4.42620277         0.00000000    
   4.52763700         0.00000000    
   4.62907076         0.00000000    
   4.73050499         0.00000000    
   4.83193922         0.00000000    
   4.93337345         0.00000000    
   5.03480768         0.00000000    
   5.13624144         0.00000000    
   5.23767567         0.00000000    
   5.33910990         0.00000000    
   5.44054413         0.00000000    
   5.54197788         0.00000000    
   5.64341211         0.00000000    
   5.74484634         0.00000000    
   5.84628057         0.00000000    
   5.94771433         0.00000000    
   6.04914856         0.00000000    
   6.15058279         0.00000000    
   6.25201702         0.00000000    
   6.35345125         0.00000000    
   6.45488501         0.00000000    
   6.55631924         0.00000000    
   6.65775347         0.00000000    
   6.75918770         0.00000000    
   6.86062145         0.00000000    
   6.96205568         0.00000000    
   7.06348991         0.00000000    
   7.16492414         0.00000000    
   7.26635790         0.00000000    
   7.36779213         0.00000000    
   7.46922636         0.00000000    
   7.57066059         0.00000000    
   7.67209482         0.00000000    
   7.77352858         0.00000000    
   7.87496281         0.00000000    
   7.97639704         0.00000000    
   8.07783127         0.00000000    
   8.17926502         0.00000000    
   8.28069973         0.00000000    
   8.38213348         0.00000000    
   8.48356724         0.00000000    
   8.58500195         0.00000000    
   8.68643570         0.00000000    
   8.78787041         0.00000000    
   8.88930416         0.00000000    
   8.99073792         0.00000000    
   9.09217262         0.00000000    
   9.19360638         0.00000000    
   9.29504013         0.00000000    
   9.39647484         0.00000000    
   9.49790859         0.00000000    
   9.59934330         0.00000000    
   9.70077705         0.00000000    
   9.80221081         0.00000000    
   9.90364552         0.00000000    
   10.0050793         0.00000000    
   10.1065140         0.00000000    
   10.2079477         0.00000000    
   10.3093815         0.00000000    
   10.4108162         0.00000000    
   10.5122499         0.00000000    
   10.6136837         0.00000000    
   10.7151184         0.00000000    
   10.8165522         0.00000000    
   10.9179869         0.00000000    
   11.0194206         0.00000000    
   11.1208544         0.00000000    
   11.2222891         0.00000000    
   11.3237228         0.00000000    
   11.4251575         0.00000000    
   11.5265913         0.00000000    
   11.6280251         0.00000000    
   11.7294598         0.00000000    
   11.8308935         0.00000000    
   11.9323273         0.00000000    
   12.0337620         0.00000000    
   12.1351957         0.00000000    
   12.2366304         0.00000000    
   12.3380642         0.00000000    
   12.4394979         0.00000000    
   12.5409327         0.00000000    
   12.6423664         0.00000000    
   12.7438011         0.00000000    
   12.8452349         0.00000000    
   12.9466686         0.00000000    
   13.0481033         0.00000000    
   13.1495371         0.00000000    
   13.2509708         0.00000000    
   13.3524055         0.00000000    
   13.4538393         0.00000000    
   13.5552740         0.00000000    
   13.6567078         0.00000000    
   13.7581415         0.00000000    
   13.8595762         0.00000000    
   13.9610100         0.00000000    
   14.0624447         0.00000000    
   14.1638784         0.00000000    
   14.2653122         0.00000000    
   14.3667469         0.00000000    
   14.4681807         0.00000000    
   14.5696154         0.00000000    
   14.6710491         0.00000000    
   14.7724829         0.00000000    
   14.8739176         0.00000000    
   14.9753513         0.00000000    
   15.0767851         0.00000000    
   15.1782198         0.00000000    
   15.2796535         0.00000000    
   15.3810883         0.00000000    
   15.4825220         0.00000000    
   15.5839558         0.00000000    
   15.6853905         0.00000000    
   15.7868242         0.00000000    
   15.8882589         0.00000000    
   15.9896927         0.00000000    
   16.0911274         0.00000000    
   16.1925602         0.00000000    
   16.2939949         0.00000000    
   16.3954296         0.00000000    
   16.4968624         0.00000000    
   16.5982971         0.00000000    
   16.6997318         0.00000000    
   16.8011646         0.00000000    
   16.9025993         0.00000000    
   17.0040340         0.00000000    
   17.1054688         0.00000000    
   17.2069016         0.00000000    
   17.3083363         0.00000000    
   17.4097710         0.00000000    
   17.5112038         0.00000000    
   17.6126385         0.00000000    
   17.7140732         0.00000000    
   17.8155060         0.00000000    
   17.9169407         0.00000000    
   18.0183754         0.00000000    
   18.1198101         0.00000000    
   18.2212429         0.00000000    
   18.3226776         0.00000000    
   18.4241123         0.00000000    
   18.5255451         0.00000000    
   18.6269798         0.00000000    
   18.7284145         0.00000000    
   18.8298473         0.00000000    
   18.9312820         0.00000000    
   19.0327168         0.00000000    
   19.1341496         0.00000000    
   19.2355843         0.00000000    
   19.3370190         0.00000000    
   19.4384537         0.00000000    
   19.5398865         0.00000000    
   19.6413212         0.00000000    
   19.7427559         0.00000000    
   19.8441887         0.00000000    
   19.9456234         0.00000000    
   20.0470581         0.00000000    
   20.1484909         0.00000000    
   20.2499256         0.00000000    
   20.3513603         0.00000000    
   20.4527931         0.00000000    
   20.5542278         0.00000000    
   20.6556625         0.00000000    
   20.7570972         0.00000000    
   20.8585300         0.00000000    
   20.9599648         0.00000000    
   21.0613995         0.00000000    
   21.1628323         0.00000000    
   21.2642670         0.00000000    
   21.3657017         0.00000000    
   21.4671345         0.00000000    
   21.5685692         0.00000000    
   21.6700039         0.00000000    
   21.7714367         0.00000000    
   21.8728714         0.00000000    
   21.9743061         0.00000000    
   22.0757408         0.00000000    
   22.1771736         0.00000000    
   22.2786083         0.00000000    
   22.3800430         0.00000000    
   22.4814758         0.00000000    
   22.5829105         0.00000000    
   22.6843452         0.00000000    
   22.7857780         0.00000000    
   22.8872128         0.00000000    
   22.9886475         0.00000000    
   23.0900803         0.00000000    
   23.1915150         0.00000000    
   23.2929497         0.00000000    
   23.3943844         0.00000000    
   23.4958172         0.00000000    
   23.5972519         0.00000000    
   23.6986866         0.00000000    
   23.8001194         0.00000000    
   23.9015541         0.00000000    
   24.0029888         0.00000000    
   24.1044216         0.00000000    
   24.2058563         0.00000000    
   24.3072910         0.00000000    
   24.4087238         0.00000000    
   24.5101585         0.00000000    
   24.6115932         0.00000000    
   24.7130280         0.00000000    
   24.8144608         0.00000000    
   24.9158955         0.00000000    
   25.0173302         0.00000000    
   25.1187630         0.00000000    
   25.2201977         0.00000000    
   25.3216324         0.00000000    
   25.4230652         0.00000000    
   25.5244999         0.00000000    
   25.6259346         0.00000000    
   25.7273674         0.00000000    
   25.8288021         0.00000000    
   25.9302368         0.00000000    
   26.0316715         0.00000000    
   26.1331043         0.00000000    
   26.2345390         0.00000000    
   26.3359737         0.00000000    
   26.4374065         0.00000000    
   26.5388412         0.00000000    
   26.6402760         0.00000000    
   26.7417088         0.00000000    
   26.8431435         0.00000000    
   26.9445782         0.00000000    
   27.0460110         0.00000000    
   27.1474457         0.00000000    
   27.2488804         0.00000000    
   27.3503151         0.00000000    
   27.4517479         0.00000000    
   27.5531826         0.00000000    
   27.6546173         0.00000000    
   27.7560501         0.00000000    
   27.8574848         0.00000000    
   27.9589195         0.00000000    
   28.0603523         0.00000000    
   28.1617870         0.00000000    
   28.2632217         0.00000000    
   28.3646545         0.00000000    
   28.4660892         0.00000000    
   28.5675240         0.00000000    
   28.6689587         0.00000000    
   28.7703915         0.00000000    
   28.8718262         0.00000000    
   28.9732609         0.00000000    
   29.0746937         0.00000000    
   29.1761284         0.00000000    
   29.2775631         0.00000000    
   29.3789959         0.00000000    
   29.4804306         0.00000000    
   29.5818653         0.00000000    
   29.6832981         0.00000000    
   29.7847328         0.00000000    
   29.8861675         0.00000000    
   29.9876022         0.00000000    
   30.0890350         0.00000000    
   30.1904697         0.00000000    
   30.2919044         0.00000000    
   30.3933372         0.00000000    
   30.4947720         0.00000000    
   30.5962067         0.00000000    
   30.6976395         0.00000000    
   30.7990742         0.00000000    
   30.9005089         0.00000000    
   31.0019417         0.00000000    
   31.1033764         0.00000000    
   31.2048111         0.00000000    
   31.3062458         0.00000000    
   31.4076786         0.00000000    
   31.5091133         0.00000000    
   31.6105480         0.00000000    
   31.7119808         0.00000000    
   31.8134155         0.00000000    
   31.9148502         0.00000000    
   32.0162849         0.00000000    
   32.1177177         0.00000000    
   32.2191505         0.00000000    
   32.3205872         0.00000000    
   32.4220200         0.00000000    
   32.5234528         0.00000000    
   32.6248894         0.00000000    
   32.7263222         0.00000000    
   32.8277550         0.00000000    
   32.9291916         0.00000000    
   33.0306244         0.00000000    
   33.1320610         0.00000000    
   33.2334938         0.00000000    
   33.3349266         0.00000000    
   33.4363632         0.00000000    
   33.5377960         0.00000000    
   33.6392288         0.00000000    
   33.7406654         0.00000000    
   33.8420982         0.00000000    
   33.9435310         0.00000000    
   34.0449677         0.00000000    
   34.1464005         0.00000000    
   34.2478333         0.00000000    
   34.3492699         0.00000000    
   34.4507027         0.00000000    
   34.5521355         0.00000000    
   34.6535721         0.00000000    
   34.7550049         0.00000000    
   34.8564377         0.00000000    
   34.9578743         0.00000000    
   35.0593071         0.00000000    
   35.1607399         0.00000000    
   35.2621765         0.00000000    
   35.3636093         0.00000000    
   35.4650421         0.00000000    
   35.5664787         0.00000000    
   35.6679115         0.00000000    
   35.7693481         0.00000000    
   35.8707809         0.00000000    
   35.9722137         0.00000000    
   36.0736504         0.00000000    
   36.1750832         0.00000000    
   36.2765160         0.00000000    
   36.3779526         0.00000000    
   36.4793854         0.00000000    
   36.5808182         0.00000000    
   36.6822548         0.00000000    
   36.7836876         0.00000000    
   36.8851204         0.00000000    
   36.9865570         0.00000000    
   37.0879898         0.00000000    
   37.1894226         0.00000000    
   37.2908592         0.00000000    
   37.3922920         0.00000000    
   37.4937248         0.00000000    
   37.5951614         0.00000000    
   37.6965942         0.00000000    
   37.7980270         0.00000000    
   37.8994637         0.00000000    
   38.0008965         0.00000000    
   38.1023293         0.00000000    
   38.2037659         0.00000000    
   38.3051987         0.00000000    
   38.4066353         0.00000000    
   38.5080681         0.00000000    
   38.6095009         0.00000000    
   38.7109375         0.00000000    
   38.8123703         0.00000000    
   38.9138031         0.00000000    
   39.0152397         0.00000000    
   39.1166725         0.00000000    
   39.2181053         0.00000000    
   39.3195419         0.00000000    
   39.4209747         0.00000000    
   39.5224075         0.00000000    
   39.6238441         0.00000000    
   39.7252769         0.00000000    
   39.8267097         0.00000000    
   39.9281464         0.00000000    
   40.0295792         0.00000000    
   40.1310120         0.00000000    
   40.2324486         0.00000000    
   40.3338814         0.00000000    
   40.4353142         0.00000000    
   40.5367508         0.00000000    
   40.6381836         0.00000000    
   40.7396202         0.00000000    
   40.8410530         0.00000000    
   40.9424858         0.00000000    
   41.0439224         0.00000000    
   41.1453552         0.00000000    
   41.2467880         0.00000000    
   41.3482246         0.00000000    
   41.4496574         0.00000000    
   41.5510902         0.00000000    
   41.6525269         0.00000000    
   41.7539597         0.00000000    
   41.8553925         0.00000000    
   41.9568291         0.00000000    
   42.0582619         0.00000000    
   42.1596947         0.00000000    
   42.2611313         0.00000000    
   42.3625641         0.00000000    
   42.4639969         0.00000000    
   42.5654335         0.00000000    
   42.6668663         0.00000000    
   42.7682991         0.00000000    
   42.8697357         0.00000000    
   42.9711685         0.00000000    
   43.0726013         0.00000000    
   43.1740379         0.00000000    
   43.2754707         0.00000000    
   43.3769073         0.00000000    
   43.4783401         0.00000000    
   43.5797729         0.00000000    
   43.6812096         0.00000000    
   43.7826424         0.00000000    
   43.8840752         0.00000000    
   43.9855118         0.00000000    
   44.0869446         0.00000000    
   44.1883774         0.00000000    
   44.2898140         0.00000000    
   44.3912468         0.00000000    
   44.4926796         0.00000000    
   44.5941162         0.00000000    
   44.6955490         0.00000000    
   44.7969818         0.00000000    
   44.8984184         0.00000000    
   44.9998512         0.00000000    
   45.1012840         0.00000000    
   45.2027206         0.00000000    
   45.3041534         0.00000000    
   45.4055862         0.00000000    
   45.5070229         0.00000000    
   45.6084557         0.00000000    
   45.7098885         0.00000000    
   45.8113251         0.00000000    
   45.9127579         0.00000000    
   46.0141945         0.00000000    
   46.1156273         0.00000000    
   46.2170601         0.00000000    
   46.3184967         0.00000000    
   46.4199295         0.00000000    
   46.5213623         0.00000000    
   46.6227989         0.00000000    
   46.7242317         0.00000000    
   46.8256645         0.00000000    
   46.9271011         0.00000000    
   47.0285339         0.00000000    
   47.1299667         0.00000000    
   47.2314034         0.00000000    
   47.3328362         0.00000000    
   47.4342690         0.00000000    
   47.5357056         0.00000000    
   47.6371384         0.00000000    
   47.7385712         0.00000000    
   47.8400078         0.00000000    
   47.9414406         0.00000000    
   48.0428734         0.00000000    
   48.1443100         0.00000000    
   48.2457428         0.00000000    
   48.3471756         0.00000000    
   48.4486122         0.00000000    
   48.5500450         0.00000000    
   48.6514816         0.00000000    
   48.7529144         0.00000000    
   48.8543472         0.00000000    
   48.9557838         0.00000000    
   49.0572166         0.00000000    
   49.1586494         0.00000000    
   49.2600861         0.00000000    
   49.3615189         0.00000000    
   49.4629517         0.00000000    
   49.5643883         0.00000000    
   49.6658211         0.00000000    
   49.7672539         0.00000000    
   49.8686905         0.00000000    
   49.9701233         0.00000000    
   50.0715561         0.00000000    
   50.1729927         0.00000000    
   50.2744255         0.00000000    
   50.3758583         0.00000000    
   50.4772949         0.00000000    
   50.5787277         0.00000000    
   50.6801605         0.00000000    
   50.7815971         0.00000000    
   50.8830299         0.00000000    
   50.9844627         0.00000000    
   51.0858994         0.00000000    
   51.1873322         0.00000000    
   51.2887688         0.00000000    
   51.3902016         0.00000000    
   51.4916344         0.00000000    
   51.5930710         0.00000000    
   51.6945038         0.00000000    
   51.7959366         0.00000000    
   51.8973732         0.00000000    
   51.9988060         0.00000000    
   52.1002388         0.00000000    
   52.2016754         0.00000000    
   52.3031082         0.00000000    
   52.4045410         0.00000000    
   52.5059776         0.00000000    
   52.6074104         0.00000000    
   52.7088432         0.00000000    
   52.8102798         0.00000000    
   52.9117126         0.00000000    
   53.0131454         0.00000000    
   53.1145821         0.00000000    
   53.2160149         0.00000000    
   53.3174477         0.00000000    
   53.4188843         0.00000000    
   53.5203171         0.00000000    
   53.6217537         0.00000000    
   53.7231865         0.00000000    
   53.8246193         0.00000000    
   53.9260559         0.00000000    
   54.0274887         0.00000000    
   54.1289215         0.00000000    
   54.2303581         0.00000000    
   54.3317909         0.00000000    
   54.4332237         0.00000000    
   54.5346603         0.00000000    
   54.6360931         0.00000000    
   54.7375259         0.00000000    
   54.8389626         0.00000000    
   54.9403954         0.00000000    
   55.0418282         0.00000000    
   55.1432648         0.00000000    
   55.2446976         0.00000000    
   55.3461304         0.00000000    
   55.4475670         0.00000000    
   55.5489998         0.00000000    
   55.6504326         0.00000000    
   55.7518692         0.00000000    
   55.8533020         0.00000000    
   55.9547348         0.00000000    
   56.0561714         0.00000000    
   56.1576042         0.00000000    
   56.2590408         0.00000000    
   56.3604736         0.00000000    
   56.4619064         0.00000000    
   56.5633430         0.00000000    
   56.6647758         0.00000000    
   56.7662086         0.00000000    
   56.8676453         0.00000000    
   56.9690781         0.00000000    
   57.0705109         0.00000000    
   57.1719475         0.00000000    
   57.2733803         0.00000000    
   57.3748131         0.00000000    
   57.4762497         0.00000000    
   57.5776825         0.00000000    
   57.6791153         0.00000000    
   57.7805519         0.00000000    
   57.8819847         0.00000000    
   57.9834175         0.00000000    
   58.0848541         0.00000000    
   58.1862869         0.00000000    
   58.2877197         0.00000000    
   58.3891563         0.00000000    
   58.4905891         0.00000000    
   58.5920219         0.00000000    
   58.6934586         0.00000000    
   58.7948914         0.00000000    
   58.8963280         0.00000000    
   58.9977608         0.00000000    
   59.0991936         0.00000000    
   59.2006302         0.00000000    
   59.3020630         0.00000000    
   59.4034958         0.00000000    
   59.5049324         0.00000000    
   59.6063652         0.00000000    
   59.7077980         0.00000000    
   59.8092346         0.00000000    
   59.9106674         0.00000000    
   60.0121002         0.00000000    
   60.1135368         0.00000000    
   60.2149696         0.00000000    
   60.3164024         0.00000000    
   60.4178391         0.00000000    
   60.5192719         0.00000000    
   60.6207047         0.00000000    
   60.7221413         0.00000000    
   60.8235741         0.00000000    
   60.9250069         0.00000000    
   61.0264435         0.00000000    
   61.1278763         0.00000000    
   61.2293091         0.00000000    
   61.3307457         0.00000000    
   61.4321785         0.00000000    
   61.5336151         0.00000000    
   61.6350479         0.00000000    
   61.7364807         0.00000000    
   61.8379173         0.00000000    
   61.9393501         0.00000000    
   62.0407829         0.00000000    
   62.1422195         0.00000000    
   62.2436523         0.00000000    
   62.3450851         0.00000000    
   62.4465218         0.00000000    
   62.5479546         0.00000000    
   62.6493874         0.00000000    
   62.7508240         0.00000000    
   62.8522568         0.00000000    
   62.9536896         0.00000000    
   63.0551262         0.00000000    
   63.1565590         0.00000000    
   63.2579918         0.00000000    
   63.3594284         0.00000000    
   63.4608612         0.00000000    
   63.5622940         0.00000000    
   63.6637306         0.00000000    
   63.7651634         0.00000000    
   63.8665962         0.00000000    
   63.9680328         0.00000000    
   64.0694656         0.00000000    
   64.1708984         0.00000000    
   64.2723312         0.00000000    
   64.3737717         0.00000000    
   64.4752045         0.00000000    
   64.5766373         0.00000000    
   64.6780701         0.00000000    
   64.7795029         0.00000000    
   64.8809357         0.00000000    
   64.9823761         0.00000000    
   65.0838089         0.00000000    
   65.1852417         0.00000000    
   65.2866745         0.00000000    
   65.3881073         0.00000000    
   65.4895477         0.00000000    
   65.5909805         0.00000000    
   65.6924133         0.00000000    
   65.7938461         0.00000000    
   65.8952789         0.00000000    
   65.9967117         0.00000000    
   66.0981522         0.00000000    
   66.1995850         0.00000000    
   66.3010178         0.00000000    
   66.4024506         0.00000000    
   66.5038834         0.00000000    
   66.6053162         0.00000000    
   66.7067566         0.00000000    
   66.8081894         0.00000000    
   66.9096222         0.00000000    
   67.0110550         0.00000000    
   67.1124878         0.00000000    
   67.2139206         0.00000000    
   67.3153610         0.00000000    
   67.4167938         0.00000000    
   67.5182266         0.00000000    
   67.6196594         0.00000000    
   67.7210922         0.00000000    
   67.8225327         0.00000000    
   67.9239655         0.00000000    
   68.0253983         0.00000000    
   68.1268311         0.00000000    
   68.2282639         0.00000000    
   68.3296967         5.21497489E-33
   68.4311371         1.64697250E-32
   68.5325699         1.61615603E-32
   68.6340027         1.36971658E-32
   68.7354355        -6.91997009E-32
   68.8368683        -2.37042362E-31
   68.9383011        -4.01368079E-31
   69.0397415        -5.76600856E-31
   69.1411743        -7.95072029E-31
   69.2426071        -9.60929392E-31
   69.3440399        -1.02122811E-30
   69.4454727        -9.33566893E-31
   69.5469055        -6.46601262E-31
   69.6483459        -1.74045762E-31
   69.7497787         4.71921109E-31
   69.8512115         1.13442333E-30
   69.9526443         1.56643302E-30
   70.0540771         1.77825776E-30
   70.1555099         1.78359319E-30
   70.2569504         1.57856140E-30
   70.3583832         1.22864390E-30
   70.4598160         7.32862987E-31
   70.5612488         1.33566521E-31
   70.6626816        -7.72173540E-31
   70.7641220        -1.91108449E-30
   70.8655548        -3.33257839E-30
   70.9669876        -4.69628726E-30
   71.0684204        -5.79838600E-30
   71.1698532        -6.55700153E-30
   71.2712860        -6.71530620E-30
   71.3727264        -6.18511499E-30
   71.4741592        -5.40016726E-30
   71.5755920        -3.35234889E-30
   71.6770248         1.47744405E-31
   71.7784576         5.00822020E-30
   71.8798904         1.00646571E-29
   71.9813309         1.38727412E-29
   72.0827637         1.61955346E-29
   72.1841965         1.82767682E-29
   72.2856293         2.02299606E-29
   72.3870621         2.01046187E-29
   72.4884949         1.67487189E-29
   72.5899353         9.66331588E-30
   72.6913681         1.26664830E-30
   72.7928009        -3.71421006E-30
   72.8942337        -4.68506383E-30
   72.9956665        -6.65445295E-32
   73.0971069         5.00650266E-30
   73.1985397         7.37327835E-30
   73.2999725         1.64978424E-29
   73.4014053         3.20710609E-29
   73.5028381         5.24659067E-29
   73.6042709         6.32958862E-29
   73.7057114         6.04881151E-29
   73.8071442         4.29456317E-29
   73.9085770         4.09444393E-30
   74.0100098        -5.63334749E-29
   74.1114426        -1.38645374E-28
   74.2128754        -2.60565875E-28
   74.3143158        -4.16989303E-28
   74.4157486        -5.39341562E-28
   74.5171814        -5.79979358E-28
   74.6186142        -4.99709824E-28
   74.7200470        -3.07252897E-28
   74.8214798        -1.56032741E-28
   74.9229202         4.93194728E-29
   75.0243530         3.23546240E-28
   75.1257858         6.78722749E-28
   75.2272186         1.14109009E-27
   75.3286514         1.63918151E-27
   75.4300842         2.13020447E-27
   75.5315247         2.55641759E-27
   75.6329575         2.82838451E-27
   75.7343903         2.99973796E-27
   75.8358231         3.05362221E-27
   75.9372559         2.97234585E-27
   76.0386963         2.74109077E-27
   76.1401291         2.34465157E-27
   76.2415619         1.82458828E-27
   76.3429947         1.13229061E-27
   76.4444275         2.21597933E-28
   76.5458603        -9.17663152E-28
   76.6473007        -2.19422913E-27
   76.7487335        -3.52385014E-27
   76.8501663        -4.89758746E-27
   76.9515991        -6.24148482E-27
   77.0530319        -7.47668807E-27
   77.1544647        -8.51819478E-27
   77.2559052        -9.28798975E-27
   77.3573380        -9.71398003E-27
   77.4587708        -9.73228330E-27
   77.5602036        -9.28095625E-27