  -4.50000000         0.00000000    
  -4.39856577         0.00000000    
  -4.29713154         0.00000000    
  -4.19569778         1.48103826E-22
  -4.09426355         1.49169260E-21
  -3.99282932         5.69828810E-21
  -3.89139533         1.02217334E-20
  -3.78996110        -8.57478677E-23
  -3.68852711        -5.30377126E-20
  -3.58709288        -1.64731649E-19
  -3.48565888        -2.94390426E-19
  -3.38422465        -3.25725708E-19
  -3.28279042        -1.55529135E-19
  -3.18135643         6.19860070E-20
  -3.07992220        -4.04639850E-19
  -2.97848821        -2.99826420E-18
  -2.87705398        -9.45811216E-18
  -2.77561998        -2.06237336E-17
  -2.67418575        -3.46570843E-17
  -2.57275176        -4.54863145E-17
  -2.47131753        -4.27330736E-17
  -2.36988354        -1.43150388E-17
  -2.26844931         4.79068170E-17
  -2.16701531         1.40519325E-16
  -2.06558108         2.41655350E-16
  -1.96414697         3.08481564E-16
  -1.86271286         2.82592426E-16
  -1.76127875         1.05228584E-16
  -1.65984464        -2.58590636E-16
  -1.55841053        -7.91451439E-16
  -1.45697629        -1.39838575E-15
  -1.35554218        -1.89583719E-15
  -1.25410807        -2.02642299E-15
  -1.15267396        -1.50916379E-15
  -1.05123985        -1.28360564E-16
 -0.949805737         2.14772404E-15
 -0.848371625         5.04409348E-15
 -0.746937513         7.89584208E-15
 -0.645503342         9.66012108E-15
 -0.544069231         9.07502036E-15
 -0.442635119         4.98945393E-15
 -0.341201007        -3.16546229E-15
 -0.239766881        -1.48642661E-14
 -0.138332769        -2.81029540E-14
  -3.68986391E-02    -3.93468657E-14
   6.45354837E-02    -4.39882607E-14
  0.165969610        -3.73856287E-14
  0.267403722        -1.63796673E-14
  0.368837833         1.90306822E-14
  0.470271975         6.43501908E-14
  0.571706116         1.10161758E-13
  0.673140228         1.43096228E-13
  0.774574339         1.48397286E-13
  0.876008451         1.13839548E-13
  0.977442563         3.42552558E-14
   1.07887673        -8.44977639E-14
   1.18031085        -2.23480427E-13
   1.28174496        -3.51714101E-13
   1.38317907        -4.30937621E-13
   1.48461318        -4.23803923E-13
   1.58604729        -3.04196718E-13
   1.68748140        -6.74211392E-14
   1.78891551         2.62502205E-13
   1.89034963         6.31095328E-13
   1.99178374         9.59037428E-13
   2.09321785         1.15542092E-12
   2.19465208         1.13702298E-12
   2.29608607         8.50099613E-13
   2.39752030         2.89865679E-13
   2.49895430        -4.87523487E-13
   2.60038853        -1.36479857E-12
   2.70182276        -2.17739693E-12
   2.80325675        -2.74045044E-12
   2.90469098        -2.88486270E-12
   3.00612497        -2.49559162E-12
   3.10755920        -1.54383320E-12
   3.20899320        -1.05118381E-13
   3.31042743         1.64231346E-12
   3.41186142         3.44054624E-12
   3.51329565         4.99334428E-12
   3.61472964         6.01831302E-12
   3.71616387         6.29932608E-12
   3.81759810         5.72808728E-12
   3.91903210         4.32570603E-12
   4.02046633         2.23962971E-12
   4.12190056        -2.83060061E-13
   4.22333431        -2.93928271E-12
   4.32476854        -5.41987072E-12
   4.42620277        -7.45382662E-12
   4.52763700        -8.83704308E-12
   4.62907076        -9.44045710E-12
   4.73050499        -9.19888211E-12
   4.83193922        -8.08793397E-12
   4.93337345        -6.10047516E-12
   5.03480768        -3.23448256E-12
   5.13624144         4.98804719E-13
   5.23767567         5.04441497E-12
   5.33910990         1.02563583E-11
   5.44054413         1.58467874E-11
   5.54197788         2.13487440E-11
   5.64341211         2.61099389E-11
   5.74484634         2.93297608E-11
   5.84628057         3.01427633E-11
   5.94771433         2.77410473E-11
   6.04914856         2.15178448E-11
   6.15058279         1.12075809E-11
   6.25201702        -3.00361884E-12
   6.35345125        -2.04184412E-11
   6.45488501        -3.98327690E-11
   6.55631924        -5.96039190E-11
   6.65775347        -7.77718515E-11
   6.75918770        -9.22126611E-11
   6.86062145        -1.00801041E-10
   6.96205568        -1.01559886E-10
   7.06348991        -9.27830590E-11
   7.16492414        -7.31270114E-11
   7.26635790        -4.16769501E-11
   7.36779213         1.99991477E-12
   7.46922636         5.78003270E-11
   7.57066059         1.25020813E-10
   7.67209482         2.02284259E-10
   7.77352858         2.87469326E-10
   7.87496281         3.77666343E-10
   7.97639704         4.69192019E-10
   8.07783127         5.57688895E-10
   8.17926502         6.38335940E-10
   8.28069973         7.06174175E-10
   8.38213348         7.56530616E-10
   8.48356724         7.85507825E-10
   8.58500195         7.90483012E-10
   8.68643570         7.70554176E-10
   8.78787041         7.26867566E-10
   8.88930416         6.62771726E-10
   8.99073792         5.83762982E-10
   9.09217262         4.97205555E-10
   9.19360638         4.11842671E-10
   9.29504013         3.37126410E-10
   9.39647484         2.82421836E-10
   9.49790859         2.56132837E-10
   9.59934330         2.64814642E-10
   9.70077705         3.12320697E-10
   9.80221081         3.99022315E-10
   9.90364552         5.21136911E-10
   10.0050793         6.70190070E-10
   10.1065140         8.32617975E-10
   10.2079477         9.89536786E-10
   10.3093815         1.11667264E-09
   10.4108162         1.18446075E-09
   10.5122499         1.15828902E-09
   10.6136837         9.98863992E-10
   10.7151184         6.62631616E-10
   10.8165522         1.02169800E-10
   10.9179869        -7.33530792E-10
   11.0194206        -1.89908489E-09
   11.1208544        -3.45308981E-09
   11.2222891        -5.45907453E-09
   11.3237228        -7.98706168E-09
   11.4251575        -1.11158993E-08
   11.5265913        -1.49363490E-08
   11.6280251        -1.95548537E-08
   11.7294598        -2.50979841E-08
   11.8308935        -3.17171782E-08
   11.9323273        -3.95935196E-08
   12.0337620        -4.89420984E-08
   12.1351957        -6.00151537E-08
   12.2366304        -7.31034291E-08
   12.3380642        -8.85344704E-08
   12.4394979        -1.06666917E-07
   12.5409327        -1.27879559E-07
   12.6423664        -1.52553341E-07
   12.7438011        -1.81045323E-07
   12.8452349        -2.13653209E-07
   12.9466686        -2.50568007E-07
   13.0481033        -2.91815525E-07
   13.1495371        -3.37183764E-07
   13.2509708        -3.86137003E-07
   13.3524055        -4.37716523E-07
   13.4538393        -4.90426658E-07
   13.5552740        -5.42109547E-07
   13.6567078        -5.89808451E-07
   13.7581415        -6.29623230E-07
   13.8595762        -6.56559223E-07
   13.9610100        -6.64375762E-07
   14.0624447        -6.45437581E-07
   14.1638784        -5.90572938E-07
   14.2653122        -4.88947251E-07
   14.3667469        -3.27956315E-07
   14.4681807        -9.31455446E-08
   14.5696154         2.31837831E-07
   14.6710491         6.65252969E-07
   14.7724829         1.22722702E-06
   14.8739176         1.93967321E-06
   14.9753513         2.82614542E-06
   15.0767851         3.91163985E-06
   15.1782198         5.22234359E-06
   15.2796535         6.78531296E-06
   15.3810883         8.62810066E-06
   15.4825220         1.07783299E-05
   15.5839558         1.32632158E-05
   15.6853905         1.61090466E-05
   15.7868242         1.93406158E-05
   15.8882589         2.29806446E-05
   15.9896927         2.70491892E-05
   16.0911274         3.15630496E-05
   16.1925602         3.65351298E-05
   16.2939949         4.19739299E-05
   16.3954296         4.78829897E-05
   16.4968624         5.42603666E-05
   16.5982971         6.10983407E-05
   16.6997318         6.83828912E-05
   16.8011646         7.60935945E-05
   16.9025993         8.42034351E-05
   17.0040340         9.26786524E-05
   17.1054688         1.01478923E-04
   17.2069016         1.10557536E-04
   17.3083363         1.19861557E-04
   17.4097710         1.29332286E-04
   17.5112038         1.38905933E-04
   17.6126385         1.48513922E-04
   17.7140732         1.58083960E-04
   17.8155060         1.67540653E-04
   17.9169407         1.76806396E-04
   18.0183754         1.85802564E-04
   18.1198101         1.94450346E-04
   18.2212429         2.02671930E-04
   18.3226776         2.10391401E-04
   18.4241123         2.17536173E-04
   18.5255451         2.24037998E-04
   18.6269798         2.29833764E-04
   18.7284145         2.34866835E-04
   18.8298473         2.39087894E-04
   18.9312820         2.42455790E-04
   19.0327168         2.44938390E-04
   19.1341496         2.46513140E-04
   19.2355843         2.47167656E-04
   19.3370190         2.46900221E-04
   19.4384537         2.45719828E-04
   19.5398865         2.43646282E-04
   19.6413212         2.40710273E-04
   19.7427559         2.36952910E-04
   19.8441887         2.32425286E-04
   19.9456234         2.27188182E-04
   20.0470581         2.21310722E-04
   20.1484909         2.14870059E-04
   20.2499256         2.07949910E-04
   20.3513603         2.00639493E-04
   20.4527931         1.93032203E-04
   20.5542278         1.85224126E-04
   20.6556625         1.77312730E-04
   20.7570972         1.69395324E-04
   20.8585300         1.61567397E-04
   20.9599648         1.53921181E-04
   21.0613995         1.46544262E-04
   21.1628323         1.39518030E-04
   21.2642670         1.32916437E-04
   21.3657017         1.26805055E-04
   21.4671345         1.21239500E-04
   21.5685692         1.16265073E-04
   21.6700039         1.11915753E-04
   21.7714367         1.08214124E-04
   21.8728714         1.05170620E-04
   21.9743061         1.02783903E-04
   22.0757408         1.01040729E-04
   22.1771736         9.99167460E-05
   22.2786083         9.93767608E-05
   22.3800430         9.93758658E-05
   22.4814758         9.98603282E-05
   22.5829105         1.00768775E-04
   22.6843452         1.02033817E-04
   22.7857780         1.03583356E-04
   22.8872128         1.05342267E-04
   22.9886475         1.07233951E-04
   23.0900803         1.09182030E-04
   23.1915150         1.11112044E-04
   23.2929497         1.12953254E-04
   23.3943844         1.14639690E-04
   23.4958172         1.16112082E-04
   23.5972519         1.17318763E-04
   23.6986866         1.18217162E-04
   23.8001194         1.18774398E-04
   23.9015541         1.18968062E-04
   24.0029888         1.18786658E-04
   24.1044216         1.18229902E-04
   24.2058563         1.17308795E-04
   24.3072910         1.16044830E-04
   24.4087238         1.14470262E-04
   24.5101585         1.12626527E-04
   24.6115932         1.10563851E-04
   24.7130280         1.08339715E-04
   24.8144608         1.06017898E-04
   24.9158955         1.03666542E-04
   25.0173302         1.01357131E-04
   25.1187630         9.91622655E-05
   25.2201977         9.71548725E-05
   25.3216324         9.54055067E-05
   25.4230652         9.39817328E-05
   25.5244999         9.29460148E-05
   25.6259346         9.23545740E-05
   25.7273674         9.22559266E-05
   25.8288021         9.26902940E-05
   25.9302368         9.36879151E-05
   26.0316715         9.52692280E-05
   26.1331043         9.74439099E-05
   26.2345390         1.00210847E-04
   26.3359737         1.03558079E-04
   26.4374065         1.07462933E-04
   26.5388412         1.11892819E-04
   26.6402760         1.16805575E-04
   26.7417088         1.22150304E-04
   26.8431435         1.27868625E-04
   26.9445782         1.33895534E-04
   27.0460110         1.40160977E-04
   27.1474457         1.46590770E-04
   27.2488804         1.53108704E-04
   27.3503151         1.59636824E-04
   27.4517479         1.66098151E-04
   27.5531826         1.72417218E-04
   27.6546173         1.78521615E-04
   27.7560501         1.84343386E-04
   27.8574848         1.89819810E-04
   27.9589195         1.94895227E-04
   28.0603523         1.99520902E-04
   28.1617870         2.03656571E-04
   28.2632217         2.07270816E-04
   28.3646545         2.10341459E-04
   28.4660892         2.12855288E-04
   28.5675240         2.14809683E-04
   28.6689587         2.16210625E-04
   28.7703915         2.17074092E-04
   28.8718262         2.17424866E-04
   28.9732609         2.17296110E-04
   29.0746937         2.16729139E-04
   29.1761284         2.15772379E-04
   29.2775631         2.14480548E-04
   29.3789959         2.12914179E-04
   29.4804306         2.11137463E-04
   29.5818653         2.09219113E-04
   29.6832981         2.07229663E-04
   29.7847328         2.05241464E-04
   29.8861675         2.03326461E-04
   29.9876022         2.01556759E-04
   30.0890350         2.00001683E-04
   30.1904697         1.98728187E-04
   30.2919044         1.97799760E-04
   30.3933372         1.97274465E-04
   30.4947720         1.97205460E-04
   30.5962067         1.97639354E-04
   30.6976395         1.98616079E-04
   30.7990742         2.00167808E-04
   30.9005089         2.02319119E-04
   31.0019417         2.05086180E-04
   31.1033764         2.08476980E-04
   31.2048111         2.12491024E-04
   31.3062458         2.17119436E-04
   31.4076786         2.22345130E-04
   31.5091133         2.28143326E-04
   31.6105480         2.34481675E-04
   31.7119808         2.41321308E-04
   31.8134155         2.48616649E-04
   31.9148502         2.56316969E-04
   32.0162849         2.64367147E-04
   32.1177177         2.72707897E-04
   32.2191505         2.81277724E-04
   32.3205872         2.90012045E-04
   32.4220200         2.98846193E-04
   32.5234528         3.07715323E-04
   32.6248894         3.16555757E-04
   32.7263222         3.25304340E-04
   32.8277550         3.33901757E-04
   32.9291916         3.42290936E-04
   33.0306244         3.50419141E-04
   33.1320610         3.58237012E-04
   33.2334938         3.65700282E-04
   33.3349266         3.72769311E-04
   33.4363632         3.79409350E-04
   33.5377960         3.85590451E-04
   33.6392288         3.91287787E-04
   33.7406654         3.96480726E-04
   33.8420982         4.01154655E-04
   33.9435310         4.05296887E-04
   34.0449677         4.08900349E-04
   34.1464005         4.11960005E-04
   34.2478333         4.14475944E-04
   34.3492699         4.16448020E-04
   34.4507027         4.17880859E-04
   34.5521355         4.18778858E-04
   34.6535721         4.19148215E-04
   34.7550049         4.18997806E-04
   34.8564377         4.18334879E-04
   34.9578743         4.17168689E-04
   35.0593071         4.15508315E-04
   35.1607399         4.13363712E-04
   35.2621765         4.10743989E-04
   35.3636093         4.07659245E-04
   35.4650421         4.04119579E-04
   35.5664787         4.00135090E-04
   35.6679115         3.95716983E-04
   35.7693481         3.90875619E-04
   35.8707809         3.85623134E-04
   35.9722137         3.79971345E-04
   36.0736504         3.73934308E-04
   36.1750832         3.67525237E-04
   36.2765160         3.60760198E-04
   36.3779526         3.53655807E-04
   36.4793854         3.46229936E-04
   36.5808182         3.38502345E-04
   36.6822548         3.30494309E-04
   36.7836876         3.22228472E-04
   36.8851204         3.13729513E-04
   36.9865570         3.05023335E-04
   37.0879898         2.96137878E-04
   37.1894226         2.87102273E-04
   37.2908592         2.77947373E-04
   37.3922920         2.68705044E-04
   37.4937248         2.59409135E-04
   37.5951614         2.50093959E-04
   37.6965942         2.40795300E-04
   37.7980270         2.31549682E-04
   37.8994637         2.22394185E-04
   38.0008965         2.13366060E-04
   38.1023293         2.04502969E-04
   38.2037659         1.95842047E-04
   38.3051987         1.87419821E-04
   38.4066353         1.79271781E-04
   38.5080681         1.71432039E-04
   38.6095009         1.63932797E-04
   38.7109375         1.56804017E-04
   38.8123703         1.50072927E-04
   38.9138031         1.43763682E-04
   39.0152397         1.37896917E-04
   39.1166725         1.32489426E-04
   39.2181053         1.27553707E-04
   39.3195419         1.23097707E-04
   39.4209747         1.19124677E-04
   39.5224075         1.15632800E-04
   39.6238441         1.12615293E-04
   39.7252769         1.10060246E-04
   39.8267097         1.07950844E-04
   39.9281464         1.06265536E-04
   40.0295792         1.04978360E-04
   40.1310120         1.04059320E-04
   40.2324486         1.03474988E-04
   40.3338814         1.03189021E-04
   40.4353142         1.03162754E-04
   40.5367508         1.03356040E-04
   40.6381836         1.03727856E-04
   40.7396202         1.04237173E-04
   40.8410530         1.04843493E-04
   40.9424858         1.05507796E-04
   41.0439224         1.06193089E-04
   41.1453552         1.06865060E-04
   41.2467880         1.07492611E-04
   41.3482246         1.08048422E-04
   41.4496574         1.08509201E-04
   41.5510902         1.08855973E-04
   41.6525269         1.09074259E-04
   41.7539597         1.09153989E-04
   41.8553925         1.09089509E-04
   41.9568291         1.08879285E-04
   42.0582619         1.08525543E-04
   42.1596947         1.08034030E-04
   42.2611313         1.07413354E-04
   42.3625641         1.06674699E-04
   42.4639969         1.05831161E-04
   42.5654335         1.04897321E-04
   42.6668663         1.03888684E-04
   42.7682991         1.02821257E-04
   42.8697357         1.01711128E-04
   42.9711685         1.00574041E-04
   43.0726013         9.94250586E-05
   43.1740379         9.82783677E-05
   43.2754707         9.71471018E-05
   43.3769073         9.60431353E-05
   43.4783401         9.49770983E-05
   43.5797729         9.39584570E-05
   43.6812096         9.29954767E-05
   43.7826424         9.20955572E-05
   43.8840752         9.12652540E-05
   43.9855118         9.05104753E-05
   44.0869446         8.98368162E-05
   44.1883774         8.92496537E-05
   44.2898140         8.87542847E-05
   44.3912468         8.83560351E-05
   44.4926796         8.80603693E-05
   44.5941162         8.78729115E-05
   44.6955490         8.77992497E-05
   44.7969818         8.78450737E-05
   44.8984184         8.80158841E-05
   44.9998512         8.83167304E-05
   45.1012840         8.87523129E-05
   45.2027206         8.93263932E-05
   45.3041534         9.00417945E-05
   45.4055862         9.09000082E-05
   45.5070229         9.19010927E-05
   45.6084557         9.30433162E-05
   45.7098885         9.43228952E-05
   45.8113251         9.57341035E-05
   45.9127579         9.72688358E-05
   46.0141945         9.89167893E-05
   46.1156273         1.00665478E-04
   46.2170601         1.02500147E-04
   46.3184967         1.04404113E-04
   46.4199295         1.06359024E-04
   46.5213623         1.08345179E-04
   46.6227989         1.10341651E-04
   46.7242317         1.12327070E-04
   46.8256645         1.14279683E-04
   46.9271011         1.16178016E-04
   47.0285339         1.18001008E-04
   47.1299667         1.19728764E-04
   47.2314034         1.21342615E-04
   47.3328362         1.22825644E-04
   47.4342690         1.24162892E-04
   47.5357056         1.25341670E-04
   47.6371384         1.26351762E-04
   47.7385712         1.27185704E-04
   47.8400078         1.27838692E-04
   47.9414406         1.28308777E-04
   48.0428734         1.28596846E-04
   48.1443100         1.28706597E-04
   48.2457428         1.28644271E-04
   48.3471756         1.28418586E-04
   48.4486122         1.28040629E-04
   48.5500450         1.27523439E-04
   48.6514816         1.26882005E-04
   48.7529144         1.26132611E-04
   48.8543472         1.25293082E-04
   48.9557838         1.24382204E-04
   49.0572166         1.23419479E-04
   49.1586494         1.22425088E-04
   49.2600861         1.21419369E-04
   49.3615189         1.20422774E-04
   49.4629517         1.19455486E-04
   49.5643883         1.18537180E-04
   49.6658211         1.17686781E-04
   49.7672539         1.16922267E-04
   49.8686905         1.16260278E-04
   49.9701233         1.15716088E-04
   50.0715561         1.15303315E-04
   50.1729927         1.15033690E-04
   50.2744255         1.14916962E-04
   50.3758583         1.14960843E-04
   50.4772949         1.15170711E-04
   50.5787277         1.15549679E-04
   50.6801605         1.16098476E-04
   50.7815971         1.16815339E-04
   50.8830299         1.17696189E-04
   50.9844627         1.18734461E-04
   51.0858994         1.19921300E-04
   51.1873322         1.21245685E-04
   51.2887688         1.22694531E-04
   51.3902016         1.24252969E-04
   51.4916344         1.25904466E-04
   51.5930710         1.27631269E-04
   51.6945038         1.29414591E-04
   51.7959366         1.31234920E-04
   51.8973732         1.33072390E-04
   51.9988060         1.34906921E-04
   52.1002388         1.36718649E-04
   52.2016754         1.38488016E-04
   52.3031082         1.40196193E-04
   52.4045410         1.41824989E-04
   52.5059776         1.43357422E-04
   52.6074104         1.44777412E-04
   52.7088432         1.46070321E-04
   52.8102798         1.47222730E-04
   52.9117126         1.48222782E-04
   53.0131454         1.49060012E-04
   53.1145821         1.49725340E-04
   53.2160149         1.50211301E-04
   53.3174477         1.50511783E-04
   53.4188843         1.50621971E-04
   53.5203171         1.50538399E-04
   53.6217537         1.50258857E-04
   53.7231865         1.49782354E-04
   53.8246193         1.49109095E-04
   53.9260559         1.48240404E-04
   54.0274887         1.47178755E-04
   54.1289215         1.45927930E-04
   54.2303581         1.44492951E-04
   54.3317909         1.42880090E-04
   54.4332237         1.41097102E-04
   54.5346603         1.39152951E-04
   54.6360931         1.37058101E-04
   54.7375259         1.34824382E-04
   54.8389626         1.32465037E-04
   54.9403954         1.29994485E-04
   55.0418282         1.27428415E-04
   55.1432648         1.24783648E-04
   55.2446976         1.22077836E-04
   55.3461304         1.19329568E-04
   55.4475670         1.16558003E-04
   55.5489998         1.13782757E-04
   55.6504326         1.11023699E-04
   55.7518692         1.08300679E-04
   55.8533020         1.05633320E-04
   55.9547348         1.03040693E-04
   56.0561714         1.00541271E-04
   56.1576042         9.81524063E-05
   56.2590408         9.58903911E-05
   56.3604736         9.37700534E-05
   56.4619064         9.18047517E-05
   56.5633430         9.00063242E-05
   56.6647758         8.83848043E-05
   56.7662086         8.69486394E-05
   56.8676453         8.57044943E-05
   56.9690781         8.46574912E-05
   57.0705109         8.38110354E-05
   57.1719475         8.31669458E-05
   57.2733803         8.27255644E-05
   57.3748131         8.24857052E-05
   57.4762497         8.24446688E-05
   57.5776825         8.25984243E-05
   57.6791153         8.29414130E-05
   57.7805519         8.34667517E-05
   57.8819847         8.41661313E-05
   57.9834175         8.50298602E-05
   58.0848541         8.60469154E-05
   58.1862869         8.72049350E-05
   58.2877197         8.84901820E-05
   58.3891563         8.98877333E-05
   58.4905891         9.13812182E-05
   58.5920219         9.29531816E-05
   58.6934586         9.45849752E-05
   58.7948914         9.62568593E-05
   58.8963280         9.79481993E-05
   58.9977608         9.96377712E-05
   59.0991936         1.01303733E-04
   59.2006302         1.02924227E-04
   59.3020630         1.04477542E-04
   59.4034958         1.05942585E-04
   59.5049324         1.07299187E-04
   59.6063652         1.08528715E-04
   59.7077980         1.09614179E-04
   59.8092346         1.10540939E-04
   59.9106674         1.11296969E-04
   60.0121002         1.11873051E-04
   60.1135368         1.12263195E-04
   60.2149696         1.12464877E-04
   60.3164024         1.12479160E-04
   60.4178391         1.12310641E-04
   60.5192719         1.11967689E-04
   60.6207047         1.11462257E-04
   60.7221413         1.10809669E-04
   60.8235741         1.10028486E-04
   60.9250069         1.09140055E-04
   61.0264435         1.08168082E-04
   61.1278763         1.07138294E-04
   61.2293091         1.06077576E-04
   61.3307457         1.05013620E-04
   61.4321785         1.03974176E-04
   61.5336151         1.02986429E-04
   61.6350479         1.02076381E-04
   61.7364807         1.01268241E-04
   61.8379173         1.00583944E-04
   61.9393501         1.00042540E-04
   62.0407829         9.96599993E-05
   62.1422195         9.94486400E-05
   62.2436523         9.94171132E-05
   62.3450851         9.95700466E-05
   62.4465218         9.99081603E-05
   62.5479546         1.00428129E-04
   62.6493874         1.01122743E-04
   62.7508240         1.01981226E-04
   62.8522568         1.02989245E-04
   62.9536896         1.04129518E-04
   63.0551262         1.05382132E-04
   63.1565590         1.06725005E-04
   63.2579918         1.08134504E-04
   63.3594284         1.09585788E-04
   63.4608612         1.11053596E-04
   63.5622940         1.12512600E-04
   63.6637306         1.13938055E-04
   63.7651634         1.15306197E-04
   63.8665962         1.16594732E-04
   63.9680328         1.17783107E-04
   64.0694656         1.18853088E-04
   64.1708984         1.19788812E-04
   64.2723312         1.20577024E-04
   64.3737717         1.21207537E-04
   64.4752045         1.21672965E-04
   64.5766373         1.21969155E-04
   64.6780701         1.22095080E-04
   64.7795029         1.22052668E-04
   64.8809357         1.21847013E-04
   64.9823761         1.21485937E-04
   65.0838089         1.20979988E-04
   65.1852417         1.20342091E-04
   65.2866745         1.19587421E-04
   65.3881073         1.18732823E-04
   65.4895477         1.17796757E-04
   65.5909805         1.16798867E-04
   65.6924133         1.15759460E-04
   65.7938461         1.14699382E-04
   65.8952789         1.13639457E-04
   65.9967117         1.12600210E-04
   66.0981522         1.11601483E-04
   66.1995850         1.10662048E-04
   66.3010178         1.09799155E-04
   66.4024506         1.09028275E-04
   66.5038834         1.08362685E-04
   66.6053162         1.07813066E-04
   66.7067566         1.07387459E-04
   66.8081894         1.07090826E-04
   66.9096222         1.06924963E-04
   67.0110550         1.06888467E-04
   67.1124878         1.06976680E-04
   67.2139206         1.07181608E-04
   67.3153610         1.07492400E-04
   67.4167938         1.07895117E-04
   67.5182266         1.08373344E-04
   67.6196594         1.08908360E-04
   67.7210922         1.09479457E-04
   67.8225327         1.10064437E-04
   67.9239655         1.10640205E-04
   68.0253983         1.11183035E-04
   68.1268311         1.11669331E-04
   68.2282639         1.12076021E-04
   68.3296967         1.12381313E-04
   68.4311371         1.12565111E-04
   68.5325699         1.12609625E-04
   68.6340027         1.12499867E-04
   68.7354355         1.12223992E-04
   68.8368683         1.11773748E-04
   68.9383011         1.11144487E-04
   69.0397415         1.10335663E-04
   69.1411743         1.09350469E-04
   69.2426071         1.08196160E-04
   69.3440399         1.06883585E-04
   69.4454727         1.05427127E-04
   69.5469055         1.03844381E-04
   69.6483459         1.02155514E-04
   69.7497787         1.00383171E-04
   69.8512115         9.85517108E-05
   69.9526443         9.66867665E-05
   70.0540771         9.48146044E-05
   70.1555099         9.29615635E-05
   70.2569504         9.11534589E-05
   70.3583832         8.94150871E-05
   70.4598160         8.77695711E-05
   70.5612488         8.62380693E-05
   70.6626816         8.48393393E-05
   70.7641220         8.35894753E-05
   70.8655548         8.25016759E-05
   70.9669876         8.15862513E-05
   71.0684204         8.08505138E-05
   71.1698532         8.02988870E-05
   71.2712860         7.99331392E-05
   71.3727264         7.97524408E-05
   71.4741592         7.97536777E-05
   71.5755920         7.99318441E-05
   71.6770248         8.02802169E-05
   71.7784576         8.07906836E-05
   71.8798904         8.14539817E-05
   71.9813309         8.22602669E-05
   72.0827637         8.31991201E-05
   72.1841965         8.42599184E-05
   72.2856293         8.54320824E-05
   72.3870621         8.67053095E-05
   72.4884949         8.80695588E-05
   72.5899353         8.95153280E-05
   72.6913681         9.10335148E-05
   72.7928009         9.26155626E-05
   72.8942337         9.42532351E-05
   72.9956665         9.59387762E-05
   73.0971069         9.76646115E-05
   73.1985397         9.94233997E-05
   73.2999725         1.01207799E-04
   73.4014053         1.03010570E-04
   73.5028381         1.04824299E-04
   73.6042709         1.06641586E-04
   73.7057114         1.08454857E-04
   73.8071442         1.10256537E-04
   73.9085770         1.12039052E-04
   74.0100098         1.13794733E-04
   74.1114426         1.15516181E-04
   74.2128754         1.17196134E-04
   74.3143158         1.18827564E-04
   74.4157486         1.20403784E-04
   74.5171814         1.21918682E-04
   74.6186142         1.23366670E-04
   74.7200470         1.24742772E-04
   74.8214798         1.26042883E-04
   74.9229202         1.27263556E-04
   75.0243530         1.28402360E-04
   75.1257858         1.29457752E-04
   75.2272186         1.30429064E-04
   75.3286514         1.31316498E-04
   75.4300842         1.32120942E-04
   75.5315247         1.32844070E-04
   75.6329575         1.33487949E-04
   75.7343903         1.34055008E-04
   75.8358231         1.34547852E-04
   75.9372559         1.34969014E-04
   76.0386963         1.35321054E-04
   76.1401291         1.35605995E-04
   76.2415619         1.35825569E-04
   76.3429947         1.35980896E-04
   76.4444275         1.36072427E-04
   76.5458603         1.36099887E-04
   76.6473007         1.36062183E-04
   76.7487335         1.35957380E-04
   76.8501663         1.35782597E-04
   76.9515991         1.35534341E-04
   77.0530319         1.35208131E-04
   77.1544647         1.34798844E-04
   77.2559052         1.34300877E-04
   77.3573380         1.33708294E-04
   77.4587708         1.33014968E-04
   77.5602036         1.32214860E-04