  -4.50000000         0.00000000    
  -4.39856577         0.00000000    
  -4.29713154         0.00000000    
  -4.19569778        -1.53249910E-23
  -4.09426355        -1.47817277E-23
  -3.99282932         1.61181888E-21
  -3.89139533         1.25601503E-20
  -3.78996110         5.01630402E-20
  -3.68852711         1.30148688E-19
  -3.58709288         2.24065444E-19
  -3.48565888         1.89444923E-19
  -3.38422465        -2.76610903E-19
  -3.28279042        -1.56414281E-18
  -3.18135643        -3.86917206E-18
  -3.07992220        -6.72346299E-18
  -2.97848821        -8.54971151E-18
  -2.87705398        -6.64656166E-18
  -2.77561998         1.96342382E-18
  -2.67418575         1.86565475E-17
  -2.57275176         4.07053958E-17
  -2.47131753         5.92427615E-17
  -2.36988354         5.92401807E-17
  -2.26844931         2.28978582E-17
  -2.16701531        -6.31250510E-17
  -2.06558108        -1.97877246E-16
  -1.96414697        -3.56796853E-16
  -1.86271286        -4.87390328E-16
  -1.76127875        -5.14494483E-16
  -1.65984464        -3.58056418E-16
  -1.55841053         3.70824241E-17
  -1.45697629         6.64658442E-16
  -1.35554218         1.42397843E-15
  -1.25410807         2.10446924E-15
  -1.15267396         2.40261827E-15
  -1.05123985         1.98226123E-15
 -0.949805737         5.79561754E-16
 -0.848371625        -1.86105632E-15
 -0.746937513        -5.05188407E-15
 -0.645503342        -8.27598030E-15
 -0.544069231        -1.04060945E-14
 -0.442635119        -1.00758974E-14
 -0.341201007        -6.02172239E-15
 -0.239766881         2.43658768E-15
 -0.138332769         1.48690163E-14
  -3.68986391E-02     2.93140688E-14
   6.45354837E-02     4.21463808E-14
  0.165969610         4.84024814E-14
  0.267403722         4.26600317E-14
  0.368837833         2.04337008E-14
  0.470271975        -2.01171223E-14
  0.571706116        -7.65393134E-14
  0.673140228        -1.40976992E-13
  0.774574339        -2.00093834E-13
  0.876008451        -2.36393506E-13
  0.977442563        -2.31046817E-13
   1.07887673        -1.67980118E-13
   1.18031085        -3.85956559E-14
   1.28174496         1.53816237E-13
   1.38317907         3.91070233E-13
   1.48461318         6.39506948E-13
   1.58604729         8.52540206E-13
   1.68748140         9.76492758E-13
   1.78891551         9.59219141E-13
   1.89034963         7.60362856E-13
   1.99178374         3.61585111E-13
   2.09321785        -2.25124146E-13
   2.19465208        -9.52841430E-13
   2.29608607        -1.74014069E-12
   2.39752030        -2.47716170E-12
   2.49895430        -3.03704262E-12
   2.60038853        -3.29157274E-12
   2.70182276        -3.12923797E-12
   2.80325675        -2.47340147E-12
   2.90469098        -1.29831291E-12
   3.00612497         3.59152757E-13
   3.10755920         2.39361200E-12
   3.20899320         4.63217182E-12
   3.31042743         6.84273298E-12
   3.41186142         8.74951066E-12
   3.51329565         1.00552604E-11
   3.61472964         1.04693441E-11
   3.71616387         9.74030578E-12
   3.81759810         7.69108301E-12
   3.91903210         4.25420463E-12
   4.02046633        -4.96515155E-13
   4.12190056        -6.32221012E-12
   4.22333431        -1.28080021E-11
   4.32476854        -1.93697697E-11
   4.42620277        -2.52826041E-11
   4.52763700        -2.97330043E-11
   4.62907076        -3.18941019E-11
   4.73050499        -3.10195619E-11
   4.83193922        -2.65482636E-11
   4.93337345        -1.82086256E-11
   5.03480768        -6.10918824E-12
   5.13624144         9.19820903E-12
   5.23767567         2.66951617E-11
   5.33910990         4.49223124E-11
   5.44054413         6.20581850E-11
   5.54197788         7.60494237E-11
   5.64341211         8.47846238E-11
   5.74484634         8.62987737E-11
   5.84628057         7.89904114E-11
   5.94771433         6.18320117E-11
   6.04914856         3.45533394E-11
   6.15058279        -2.22103651E-12
   6.25201702        -4.68953244E-11
   6.35345125        -9.68981978E-11
   6.45488501        -1.48756604E-10
   6.55631924        -1.98248237E-10
   6.65775347        -2.40628073E-10
   6.75918770        -2.70919093E-10
   6.86062145        -2.84253454E-10
   6.96205568        -2.76244777E-10
   7.06348991        -2.43370685E-10
   7.16492414        -1.83339829E-10
   7.26635790        -9.54176321E-11
   7.36779213         1.93154243E-11
   7.46922636         1.57797414E-10
   7.57066059         3.14930609E-10
   7.67209482         4.83652618E-10
   7.77352858         6.55139221E-10
   7.87496281         8.19135537E-10
   7.97639704         9.64406777E-10
   8.07783127         1.07928411E-09
   8.17926502         1.15228938E-09
   8.28069973         1.17280630E-09
   8.38213348         1.13177112E-09
   8.48356724         1.02236020E-09
   8.58500195         8.40642833E-10
   8.68643570         5.86181603E-10
   8.78787041         2.62547734E-10
   8.88930416        -1.22276064E-10
   8.99073792        -5.55640867E-10
   9.09217262        -1.02016839E-09
   9.19360638        -1.49392909E-09
   9.29504013        -1.95091032E-09
   9.39647484        -2.36181830E-09
   9.49790859        -2.69524958E-09
   9.59934330        -2.91924240E-09
   9.70077705        -3.00318281E-09
   9.80221081        -2.92001801E-09
   9.90364552        -2.64867306E-09
   10.0050793        -2.17653962E-09
   10.1065140        -1.50187673E-09
   10.2079477        -6.35926811E-10
   10.3093815         3.95442262E-10
   10.4108162         1.55075552E-09
   10.5122499         2.77276890E-09
   10.6136837         3.98925781E-09
   10.7151184         5.11479437E-09
   10.8165522         6.05357142E-09
   10.9179869         6.70313449E-09
   11.0194206         6.95896718E-09
   11.1208544         6.71968392E-09
   11.2222891         5.89257265E-09
   11.3237228         4.39922809E-09
   11.4251575         2.18086771E-09
   11.5265913        -7.96945510E-10
   11.6280251        -4.54063676E-09
   11.7294598        -9.02626329E-09
   11.8308935        -1.41988394E-08
   11.9323273        -1.99735943E-08
   12.0337620        -2.62392845E-08
   12.1351957        -3.28636425E-08
   12.2366304        -3.97008897E-08
   12.3380642        -4.66010235E-08
   12.4394979        -5.34203295E-08
   12.5409327        -6.00327255E-08
   12.6423664        -6.63408670E-08
   12.7438011        -7.22857081E-08
   12.8452349        -7.78541391E-08
   12.9466686        -8.30819857E-08
   13.0481033        -8.80525448E-08
   13.1495371        -9.28874329E-08
   13.2509708        -9.77301369E-08
   13.3524055        -1.02719973E-07
   13.4538393        -1.07955415E-07
   13.5552740        -1.13447342E-07
   13.6567078        -1.19060445E-07
   13.7581415        -1.24445165E-07
   13.8595762        -1.28958220E-07
   13.9610100        -1.31575490E-07
   14.0624447        -1.30798455E-07
   14.1638784        -1.24555612E-07
   14.2653122        -1.10102746E-07
   14.3667469        -8.39240926E-08
   14.4681807        -4.16400994E-08
   14.5696154         2.20781509E-08
   14.6710491         1.13580711E-07
   14.7724829         2.40296799E-07
   14.8739176         4.10768422E-07
   14.9753513         6.34671778E-07
   15.0767851         9.22801064E-07
   15.1782198         1.28703550E-06
   15.2796535         1.74027775E-06
   15.3810883         2.29636044E-06
   15.4825220         2.96991607E-06
   15.5839558         3.77625565E-06
   15.6853905         4.73116688E-06
   15.7868242         5.85074577E-06
   15.8882589         7.15117403E-06
   15.9896927         8.64848971E-06
   16.0911274         1.03583761E-05
   16.1925602         1.22958918E-05
   16.2939949         1.44752512E-05
   16.3954296         1.69095965E-05
   16.4968624         1.96107321E-05
   16.5982971         2.25889708E-05
   16.6997318         2.58528999E-05
   16.8011646         2.94092679E-05
   16.9025993         3.32627897E-05
   17.0040340         3.74160736E-05
   17.1054688         4.18694945E-05
   17.2069016         4.66212332E-05
   17.3083363         5.16671789E-05
   17.4097710         5.70010197E-05
   17.5112038         6.26142864E-05
   17.6126385         6.84964325E-05
   17.7140732         7.46349833E-05
   17.8155060         8.10156562E-05
   17.9169407         8.76224003E-05
   18.0183754         9.44380226E-05
   18.1198101         1.01443999E-04
   18.2212429         1.08620792E-04
   18.3226776         1.15948147E-04
   18.4241123         1.23405291E-04
   18.5255451         1.30971370E-04
   18.6269798         1.38625430E-04
   18.7284145         1.46346632E-04
   18.8298473         1.54114983E-04
   18.9312820         1.61910793E-04
   19.0327168         1.69715539E-04
   19.1341496         1.77511683E-04
   19.2355843         1.85283032E-04
   19.3370190         1.93014654E-04
   19.4384537         2.00693466E-04
   19.5398865         2.08307712E-04
   19.6413212         2.15847569E-04
   19.7427559         2.23305062E-04
   19.8441887         2.30673977E-04
   19.9456234         2.37950269E-04
   20.0470581         2.45131494E-04
   20.1484909         2.52217607E-04
   20.2499256         2.59210210E-04
   20.3513603         2.66112882E-04
   20.4527931         2.72931182E-04
   20.5542278         2.79672444E-04
   20.6556625         2.86345719E-04
   20.7570972         2.92961922E-04
   20.8585300         2.99533189E-04
   20.9599648         3.06073256E-04
   21.0613995         3.12596851E-04
   21.1628323         3.19119747E-04
   21.2642670         3.25658359E-04
   21.3657017         3.32229713E-04
   21.4671345         3.38850718E-04
   21.5685692         3.45538079E-04
   21.6700039         3.52307979E-04
   21.7714367         3.59175756E-04
   21.8728714         3.66155233E-04
   21.9743061         3.73258546E-04
   22.0757408         3.80495650E-04
   22.1771736         3.87874199E-04
   22.2786083         3.95398645E-04
   22.3800430         4.03070677E-04
   22.4814758         4.10888373E-04
   22.5829105         4.18845972E-04
   22.6843452         4.26934334E-04
   22.7857780         4.35140217E-04
   22.8872128         4.43446566E-04
   22.9886475         4.51832806E-04
   23.0900803         4.60274634E-04
   23.1915150         4.68744431E-04
   23.2929497         4.77212132E-04
   23.3943844         4.85644850E-04
   23.4958172         4.94008302E-04
   23.5972519         5.02266805E-04
   23.6986866         5.10384678E-04
   23.8001194         5.18326357E-04
   23.9015541         5.26057731E-04
   24.0029888         5.33546845E-04
   24.1044216         5.40764711E-04
   24.2058563         5.47686592E-04
   24.3072910         5.54292288E-04
   24.4087238         5.60567540E-04
   24.5101585         5.66504314E-04
   24.6115932         5.72101970E-04
   24.7130280         5.77367435E-04
   24.8144608         5.82315959E-04
   24.9158955         5.86970826E-04
   25.0173302         5.91364689E-04
   25.1187630         5.95537946E-04
   25.2201977         5.99540421E-04
   25.3216324         6.03429333E-04
   25.4230652         6.07269583E-04
   25.5244999         6.11133000E-04
   25.6259346         6.15097117E-04
   25.7273674         6.19244238E-04
   25.8288021         6.23660570E-04
   25.9302368         6.28433598E-04
   26.0316715         6.33652089E-04
   26.1331043         6.39403821E-04
   26.2345390         6.45773252E-04
   26.3359737         6.52840652E-04
   26.4374065         6.60679536E-04
   26.5388412         6.69355330E-04
   26.6402760         6.78923272E-04
   26.7417088         6.89426321E-04
   26.8431435         7.00894045E-04
   26.9445782         7.13340356E-04
   27.0460110         7.26762577E-04
   27.1474457         7.41139229E-04
   27.2488804         7.56429974E-04
   27.3503151         7.72573228E-04
   27.4517479         7.89486512E-04
   27.5531826         8.07065750E-04
   27.6546173         8.25184339E-04
   27.7560501         8.43693560E-04
   27.8574848         8.62423156E-04
   27.9589195         8.81181622E-04
   28.0603523         8.99756851E-04
   28.1617870         9.17917932E-04
   28.2632217         9.35416203E-04
   28.3646545         9.51987924E-04
   28.4660892         9.67354397E-04
   28.5675240         9.81227611E-04
   28.6689587         9.93309543E-04
   28.7703915         1.00329798E-03
   28.8718262         1.01088767E-03
   28.9732609         1.01577502E-03
   29.0746937         1.01766095E-03
   29.1761284         1.01625419E-03
   29.2775631         1.01127650E-03
   29.3789959         1.00246537E-03
   29.4804306         9.89576336E-04
   29.5818653         9.72390058E-04
   29.6832981         9.50712885E-04
   29.7847328         9.24381544E-04
   29.8861675         8.93265358E-04
   29.9876022         8.57270788E-04
   30.0890350         8.16341490E-04
   30.1904697         7.70461920E-04
   30.2919044         7.19659671E-04
   30.3933372         6.64004299E-04
   30.4947720         6.03610591E-04
   30.5962067         5.38637163E-04
   30.6976395         4.69286984E-04
   30.7990742         3.95805662E-04
   30.9005089         3.18481005E-04
   31.0019417         2.37640561E-04
   31.1033764         1.53649380E-04
   31.2048111         6.69067886E-05
   31.3062458        -2.21563550E-05
   31.4076786        -1.13081856E-04
   31.5091133        -2.05388162E-04
   31.6105480        -2.98574712E-04
   31.7119808        -3.92126880E-04
   31.8134155        -4.85520228E-04
   31.9148502        -5.78225823E-04
   32.0162849        -6.69715693E-04
   32.1177177        -7.59466959E-04
   32.2191505        -8.46967392E-04
   32.3205872        -9.31719842E-04
   32.4220200        -1.01324730E-03
   32.5234528        -1.09109702E-03
   32.6248894        -1.16484368E-03
   32.7263222        -1.23409450E-03
   32.8277550        -1.29849254E-03
   32.9291916        -1.35771791E-03
   33.0306244        -1.41149200E-03
   33.1320610        -1.45957794E-03
   33.2334938        -1.50178361E-03
   33.3349266        -1.53796212E-03
   33.4363632        -1.56801031E-03
   33.5377960        -1.59187231E-03
   33.6392288        -1.60953612E-03
   33.7406654        -1.62103423E-03
   33.8420982        -1.62644184E-03
   33.9435310        -1.62587443E-03
   34.0449677        -1.61948695E-03
   34.1464005        -1.60747021E-03
   34.2478333        -1.59004866E-03
   34.3492699        -1.56747689E-03
   34.4507027        -1.54003745E-03
   34.5521355        -1.50803546E-03
   34.6535721        -1.47179770E-03
   34.7550049        -1.43166690E-03
   34.8564377        -1.38799835E-03
   34.9578743        -1.34115817E-03
   35.0593071        -1.29151763E-03
   35.1607399        -1.23945076E-03
   35.2621765        -1.18533021E-03
   35.3636093        -1.12952525E-03
   35.4650421        -1.07239850E-03
   35.5664787        -1.01430260E-03
   35.6679115        -9.55579162E-04
   35.7693481        -8.96554382E-04
   35.8707809        -8.37539614E-04
   35.9722137        -7.78828165E-04
   36.0736504        -7.20695185E-04
   36.1750832        -6.63395040E-04
   36.2765160        -6.07162423E-04
   36.3779526        -5.52211131E-04
   36.4793854        -4.98733658E-04
   36.5808182        -4.46901860E-04
   36.6822548        -3.96866963E-04
   36.7836876        -3.48760135E-04
   36.8851204        -3.02693399E-04
   36.9865570        -2.58759945E-04
   37.0879898        -2.17035762E-04
   37.1894226        -1.77579903E-04
   37.2908592        -1.40436139E-04
   37.3922920        -1.05633364E-04
   37.4937248        -7.31873297E-05
   37.5951614        -4.31010885E-05
   37.6965942        -1.53662386E-05
   37.7980270         1.00363050E-05
   37.8994637         3.31355659E-05
   38.0008965         5.39696412E-05
   38.1023293         7.25852078E-05
   38.2037659         8.90368465E-05
   38.3051987         1.03386628E-04
   38.4066353         1.15703609E-04
   38.5080681         1.26063460E-04
   38.6095009         1.34548216E-04
   38.7109375         1.41245750E-04
   38.8123703         1.46249309E-04
   38.9138031         1.49657426E-04
   39.0152397         1.51573171E-04
   39.1166725         1.52103894E-04
   39.2181053         1.51360509E-04
   39.3195419         1.49456930E-04
   39.4209747         1.46509483E-04
   39.5224075         1.42635938E-04
   39.6238441         1.37954921E-04
   39.7252769         1.32584872E-04
   39.8267097         1.26643179E-04
   39.9281464         1.20245386E-04
   40.0295792         1.13503993E-04
   40.1310120         1.06527812E-04
   40.2324486         9.94208240E-05
   40.3338814         9.22815307E-05
   40.4353142         8.52020312E-05
   40.5367508         7.82674688E-05
   40.6381836         7.15553106E-05
   40.7396202         6.51350711E-05
   40.8410530         5.90678610E-05
   40.9424858         5.34061764E-05
   41.0439224         4.81939824E-05
   41.1453552         4.34666690E-05
   41.2467880         3.92513866E-05
   41.3482246         3.55672601E-05
   41.4496574         3.24261346E-05
   41.5510902         2.98328123E-05
   41.6525269         2.77860054E-05
   41.7539597         2.62789363E-05
   41.8553925         2.53001763E-05
   41.9568291         2.48344950E-05
   42.0582619         2.48636607E-05
   42.1596947         2.53672806E-05
   42.2611313         2.63236470E-05
   42.3625641         2.77103936E-05
   42.4639969         2.95052760E-05
   42.5654335         3.16867990E-05
   42.6668663         3.42346211E-05
   42.7682991         3.71301066E-05
   42.8697357         4.03565282E-05
   42.9711685         4.38993266E-05
   43.0726013         4.77461253E-05
   43.1740379         5.18867309E-05
   43.2754707         5.63129142E-05
   43.3769073         6.10181887E-05
   43.4783401         6.59972939E-05
   43.5797729         7.12458423E-05
   43.6812096         7.67597012E-05
   43.7826424         8.25343450E-05
   43.8840752         8.85642003E-05
   43.9855118         9.48419547E-05
   44.0869446         1.01357917E-04
   44.1883774         1.08099324E-04
   44.2898140         1.15049734E-04
   44.3912468         1.22188474E-04
   44.4926796         1.29490320E-04
   44.5941162         1.36925155E-04
   44.6955490         1.44457605E-04
   44.7969818         1.52047374E-04
   44.8984184         1.59649004E-04
   44.9998512         1.67212231E-04
   45.1012840         1.74682616E-04
   45.2027206         1.82001808E-04
   45.3041534         1.89108468E-04
   45.4055862         1.95938948E-04
   45.5070229         2.02428448E-04
   45.6084557         2.08511774E-04
   45.7098885         2.14124564E-04
   45.8113251         2.19204536E-04
   45.9127579         2.23692274E-04
   46.0141945         2.27532801E-04
   46.1156273         2.30676407E-04
   46.2170601         2.33079467E-04
   46.3184967         2.34705687E-04
   46.4199295         2.35526735E-04
   46.5213623         2.35523010E-04
   46.6227989         2.34683786E-04
   46.7242317         2.33008090E-04
   46.8256645         2.30504433E-04
   46.9271011         2.27191093E-04
   47.0285339         2.23095674E-04
   47.1299667         2.18255154E-04
   47.2314034         2.12715080E-04
   47.3328362         2.06529206E-04
   47.4342690         1.99758448E-04
   47.5357056         1.92470310E-04
   47.6371384         1.84737684E-04
   47.7385712         1.76637957E-04
   47.8400078         1.68251776E-04
   47.9414406         1.59662071E-04
   48.0428734         1.50952590E-04
   48.1443100         1.42207107E-04
   48.2457428         1.33508045E-04
   48.3471756         1.24935294E-04
   48.4486122         1.16565432E-04
   48.5500450         1.08470638E-04
   48.6514816         1.00717632E-04
   48.7529144         9.33672854E-05
   48.8543472         8.64735775E-05
   48.9557838         8.00832859E-05
   49.0572166         7.42355405E-05
   49.1586494         6.89615117E-05
   49.2600861         6.42842133E-05
   49.3615189         6.02185464E-05
   49.4629517         5.67714305E-05
   49.5643883         5.39417852E-05
   49.6658211         5.17211047E-05
   49.7672539         5.00936803E-05
   49.8686905         4.90370840E-05
   49.9701233         4.85228375E-05
   50.0715561         4.85168639E-05
   50.1729927         4.89803460E-05
   50.2744255         4.98702902E-05
   50.3758583         5.11402068E-05
   50.4772949         5.27410775E-05
   50.5787277         5.46218580E-05
   50.6801605         5.67303905E-05
   50.7815971         5.90140589E-05
   50.8830299         6.14204619E-05
   50.9844627         6.38982892E-05
   51.0858994         6.63975807E-05
   51.1873322         6.88707296E-05
   51.2887688         7.12727779E-05
   51.3902016         7.35620124E-05
   51.4916344         7.57004163E-05
   51.5930710         7.76540546E-05
   51.6945038         7.93933141E-05
   51.7959366         8.08932891E-05
   51.8973732         8.21338399E-05
   51.9988060         8.30998179E-05
   52.1002388         8.37809785E-05
   52.2016754         8.41720030E-05
   52.3031082         8.42723603E-05
   52.4045410         8.40860739E-05
   52.5059776         8.36214895E-05
   52.6074104         8.28908742E-05
   52.7088432         8.19101988E-05
   52.8102798         8.06984535E-05
   52.9117126         7.92773571E-05
   53.0131454         7.76707820E-05
   53.1145821         7.59041650E-05
   53.2160149         7.40041723E-05
   53.3174477         7.19979289E-05
   53.4188843         6.99126467E-05
   53.5203171         6.77751523E-05
   53.6217537         6.56113043E-05
   53.7231865         6.34457901E-05
   53.8246193         6.13016091E-05
   53.9260559         5.91999051E-05
   54.0274887         5.71596465E-05
   54.1289215         5.51975718E-05
   54.2303581         5.33280872E-05
   54.3317909         5.15632019E-05
   54.4332237         4.99126909E-05
   54.5346603         4.83840813E-05
   54.6360931         4.69828483E-05
   54.7375259         4.57125643E-05
   54.8389626         4.45751502E-05
   54.9403954         4.35710499E-05
   55.0418282         4.26994011E-05
   55.1432648         4.19583848E-05
   55.2446976         4.13451926E-05
   55.3461304         4.08563756E-05
   55.4475670         4.04879029E-05
   55.5489998         4.02352744E-05
   55.6504326         4.00935751E-05
   55.7518692         4.00575191E-05
   55.8533020         4.01215475E-05
   55.9547348         4.02796832E-05
   56.0561714         4.05256105E-05
   56.1576042         4.08527048E-05
   56.2590408         4.12537993E-05
   56.3604736         4.17214032E-05
   56.4619064         4.22475860E-05
   56.5633430         4.28239800E-05
   56.6647758         4.34419380E-05
   56.7662086         4.40924887E-05
   56.8676453         4.47665152E-05
   56.9690781         4.54548281E-05
   57.0705109         4.61484124E-05
   57.1719475         4.68384715E-05
   57.2733803         4.75167290E-05
   57.3748131         4.81755160E-05
   57.4762497         4.88080441E-05
   57.5776825         4.94084525E-05
   57.6791153         4.99721318E-05
   57.7805519         5.04956479E-05
   57.8819847         5.09770471E-05
   57.9834175         5.14156964E-05
   58.0848541         5.18124834E-05
   58.1862869         5.21695911E-05
   58.2877197         5.24905627E-05
   58.3891563         5.27800512E-05
   58.4905891         5.30436446E-05
   58.5920219         5.32877311E-05
   58.6934586         5.35191248E-05
   58.7948914         5.37448286E-05
   58.8963280         5.39717366E-05
   58.9977608         5.42062808E-05
   59.0991936         5.44542236E-05
   59.2006302         5.47201889E-05
   59.3020630         5.50075565E-05
   59.4034958         5.53181308E-05
   59.5049324         5.56519990E-05
   59.6063652         5.60073604E-05
   59.7077980         5.63804024E-05
   59.8092346         5.67653260E-05
   59.9106674         5.71542623E-05
   60.0121002         5.75375780E-05
   60.1135368         5.79037951E-05
   60.2149696         5.82399225E-05
   60.3164024         5.85316920E-05
   60.4178391         5.87638824E-05
   60.5192719         5.89205993E-05
   60.6207047         5.89857154E-05
   60.7221413         5.89431838E-05
   60.8235741         5.87775321E-05
   60.9250069         5.84741174E-05
   61.0264435         5.80196502E-05
   61.1278763         5.74023616E-05
   61.2293091         5.66124836E-05
   61.3307457         5.56424093E-05
   61.4321785         5.44870090E-05
   61.5336151         5.31437690E-05
   61.6350479         5.16129512E-05
   61.7364807         4.98976588E-05
   61.8379173         4.80039125E-05
   61.9393501         4.59406110E-05
   62.0407829         4.37195195E-05
   62.1422195         4.13550442E-05
   62.2436523         3.88642948E-05
   62.3450851         3.62667743E-05
   62.4465218         3.35841651E-05
   62.5479546         3.08401832E-05
   62.6493874         2.80603726E-05
   62.7508240         2.52716236E-05
   62.8522568         2.25021668E-05
   62.9536896         1.97811059E-05
   63.0551262         1.71381726E-05
   63.1565590         1.46034281E-05
   63.2579918         1.22069187E-05
   63.3594284         9.97848019E-06
   63.4608612         7.94726839E-06
   63.5622940         6.14155988E-06
   63.6637306         4.58841896E-06
   63.7651634         3.31339606E-06
   63.8665962         2.34029358E-06
   63.9680328         1.69084274E-06
   64.0694656         1.38445193E-06
   64.1708984         1.43805880E-06
   64.2723312         1.86588136E-06
   64.3737717         2.67921087E-06
   64.4752045         3.88635544E-06
   64.5766373         5.49244214E-06
   64.6780701         7.49937044E-06
   64.7795029         9.90577973E-06
   64.8809357         1.27070043E-05
   64.9823761         1.58951134E-05
   65.0838089         1.94589611E-05
   65.1852417         2.33841656E-05
   65.2866745         2.76533810E-05
   65.3881073         3.22462583E-05
   65.4895477         3.71395872E-05
   65.5909805         4.23075398E-05
   65.6924133         4.77216636E-05
   65.7938461         5.33510974E-05
   65.8952789         5.91627868E-05
   65.9967117         6.51214432E-05
   66.0981522         7.11898610E-05
   66.1995850         7.73289139E-05
   66.3010178         8.34977036E-05
   66.4024506         8.96538622E-05
   66.5038834         9.57534576E-05
   66.6053162         1.01751320E-04
   66.7067566         1.07601205E-04
   66.8081894         1.13255897E-04
   66.9096222         1.18667660E-04
   67.0110550         1.23788399E-04
   67.1124878         1.28570027E-04
   67.2139206         1.32964633E-04
   67.3153610         1.36925315E-04
   67.4167938         1.40406191E-04
   67.5182266         1.43363155E-04
   67.6196594         1.45754268E-04
   67.7210922         1.47540239E-04
   67.8225327         1.48685082E-04
   67.9239655         1.49156709E-04
   68.0253983         1.48927167E-04
   68.1268311         1.47973522E-04
   68.2282639         1.46278035E-04
   68.3296967         1.43828816E-04
   68.4311371         1.40620134E-04
   68.5325699         1.36652801E-04
   68.6340027         1.31934314E-04
   68.7354355         1.26479135E-04
   68.8368683         1.20308861E-04
   68.9383011         1.13452013E-04
   69.0397415         1.05944237E-04
   69.1411743         9.78279422E-05
   69.2426071         8.91521704E-05
   69.3440399         7.99722111E-05
   69.4454727         7.03492187E-05
   69.5469055         6.03496956E-05
   69.6483459         5.00451097E-05
   69.7497787         3.95111492E-05
   69.8512115         2.88270512E-05
   69.9526443         1.80750885E-05
   70.0540771         7.33976594E-06
   70.1555099        -3.29300042E-06
   70.2569504        -1.37365514E-05
   70.3583832        -2.39043766E-05
   70.4598160        -3.37108067E-05
   70.5612488        -4.30719047E-05
   70.6626816        -5.19062851E-05
   70.7641220        -6.01358588E-05
   70.8655548        -6.76865966E-05
   70.9669876        -7.44893914E-05
   71.0684204        -8.04806841E-05
   71.1698532        -8.56031547E-05
   71.2712860        -8.98064754E-05
   71.3727264        -9.30477254E-05
   71.4741592        -9.52920018E-05
   71.5755920        -9.65129511E-05
   71.6770248        -9.66930456E-05
   71.7784576        -9.58239543E-05
   71.8798904        -9.39066304E-05
   71.9813309        -9.09516966E-05
   72.0827637        -8.69792639E-05
   72.1841965        -8.20188288E-05
   72.2856293        -7.61092451E-05
   72.3870621        -6.92983813E-05
   72.4884949        -6.16425750E-05
   72.5899353        -5.32062950E-05
   72.6913681        -4.40613585E-05
   72.7928009        -3.42862877E-05
   72.8942337        -2.39653073E-05
   72.9956665        -1.31876632E-05
   73.0971069        -2.04631897E-06
   73.1985397         9.36282231E-06
   73.2999725         2.09422979E-05
   73.4014053         3.25940891E-05
   73.5028381         4.42207383E-05
   73.6042709         5.57266867E-05
   73.7057114         6.70191366E-05
   73.8071442         7.80093251E-05
   73.9085770         8.86133857E-05
   74.0100098         9.87533422E-05
   74.1114426         1.08357752E-04
   74.2128754         1.17362564E-04
   74.3143158         1.25711696E-04
   74.4157486         1.33357127E-04
   74.5171814         1.40259654E-04
   74.6186142         1.46388775E-04
   74.7200470         1.51722459E-04
   74.8214798         1.56247566E-04
   74.9229202         1.59958945E-04
   75.0243530         1.62859462E-04
   75.1257858         1.64959289E-04
   75.2272186         1.66275364E-04
   75.3286514         1.66830636E-04
   75.4300842         1.66653408E-04
   75.5315247         1.65776612E-04
   75.6329575         1.64236830E-04
   75.7343903         1.62073644E-04
   75.8358231         1.59329036E-04
   75.9372559         1.56046342E-04
   76.0386963         1.52269902E-04
   76.1401291         1.48044230E-04
   76.2415619         1.43413839E-04
   76.3429947         1.38422329E-04
   76.4444275         1.33112408E-04
   76.5458603         1.27525607E-04
   76.6473007         1.21701749E-04
   76.7487335         1.15679279E-04
   76.8501663         1.09494882E-04
   76.9515991         1.03183585E-04
   77.0530319         9.67788437E-05
   77.1544647         9.03125183E-05
   77.2559052         8.38151027E-05
   77.3573380         7.73156353E-05
   77.4587708         7.08419902E-05
   77.5602036         6.44209576E-05