  -4.50000000         0.00000000    
  -4.39856577         0.00000000    
  -4.29713154         0.00000000    
  -4.19569778        -3.23335253E-22
  -4.09426355        -1.39177904E-21
  -3.99282932        -2.66526297E-21
  -3.89139533        -1.62463846E-21
  -3.78996110         7.47615208E-21
  -3.68852711         3.88958774E-20
  -3.58709288         1.28713672E-19
  -3.48565888         3.50042828E-19
  -3.38422465         8.06096244E-19
  -3.28279042         1.56917196E-18
  -3.18135643         2.55996518E-18
  -3.07992220         3.42862724E-18
  -2.97848821         3.57347401E-18
  -2.87705398         2.44630332E-18
  -2.77561998         1.80575660E-19
  -2.67418575        -1.65907988E-18
  -2.57275176         3.32236602E-19
  -2.47131753         1.09040280E-17
  -2.36988354         3.44017204E-17
  -2.26844931         7.19733358E-17
  -2.16701531         1.18649927E-16
  -2.06558108         1.61732100E-16
  -1.96414697         1.81884285E-16
  -1.86271286         1.57625764E-16
  -1.76127875         7.27003217E-17
  -1.65984464        -7.54247502E-17
  -1.55841053        -2.68417118E-16
  -1.45697629        -4.63742015E-16
  -1.35554218        -5.96880825E-16
  -1.25410807        -5.89925678E-16
  -1.15267396        -3.66651261E-16
  -1.05123985         1.26347021E-16
 -0.949805737         8.93633100E-16
 -0.848371625         1.86313219E-15
 -0.746937513         2.86317105E-15
 -0.645503342         3.61549195E-15
 -0.544069231         3.75883025E-15
 -0.442635119         2.91668553E-15
 -0.341201007         8.14650348E-16
 -0.239766881        -2.56432173E-15
 -0.138332769        -6.82128465E-15
  -3.68986391E-02    -1.10363311E-14
   6.45354837E-02    -1.37863574E-14
  0.165969610        -1.33463221E-14
  0.267403722        -8.09978051E-15
  0.368837833         2.87584520E-15
  0.470271975         1.91587214E-14
  0.571706116         3.84456430E-14
  0.673140228         5.63471118E-14
  0.774574339         6.67191522E-14
  0.876008451         6.26562672E-14
  0.977442563         3.81246141E-14
   1.07887673        -9.97342247E-15
   1.18031085        -7.97043570E-14
   1.28174496        -1.62524643E-13
   1.38317907        -2.42809380E-13
   1.48461318        -2.98991707E-13
   1.58604729        -3.06573967E-13
   1.68748140        -2.42898421E-13
   1.78891551        -9.31205728E-14
   1.89034963         1.43612159E-13
   1.99178374         4.49095649E-13
   2.09321785         7.83555837E-13
   2.19465208         1.08695464E-12
   2.29608607         1.28490513E-12
   2.39752030         1.29923329E-12
   2.49895430         1.06229879E-12
   2.60038853         5.33213014E-13
   2.70182276        -2.86692653E-13
   2.80325675        -1.34226213E-12
   2.90469098        -2.51985390E-12
   3.00612497        -3.65207690E-12
   3.10755920        -4.53319066E-12
   3.20899320        -4.94478677E-12
   3.31042743        -4.68948751E-12
   3.41186142        -3.62855124E-12
   3.51329565        -1.71786804E-12
   3.61472964         9.63930324E-13
   3.71616387         4.20128298E-12
   3.81759810         7.64619878E-12
   3.91903210         1.08439646E-11
   4.02046633         1.32795649E-11
   4.12190056         1.44411037E-11
   4.22333431         1.38932884E-11
   4.32476854         1.13518058E-11
   4.42620277         6.74827859E-12
   4.52763700         2.75644281E-13
   4.62907076        -7.59415621E-12
   4.73050499        -1.61253580E-11
   4.83193922        -2.43674959E-11
   4.93337345        -3.12355211E-11
   5.03480768        -3.56139215E-11
   5.13624144        -3.64751389E-11
   5.23767567        -3.30006265E-11
   5.33910990        -2.46929525E-11
   5.44054413        -1.14678735E-11
   5.54197788         6.28261896E-12
   5.64341211         2.76630715E-11
   5.74484634         5.12874083E-11
   5.84628057         7.53338780E-11
   5.94771433         9.76418321E-11
   6.04914856         1.15848331E-10
   6.15058279         1.27560046E-10
   6.25201702         1.30553138E-10
   6.35345125         1.22991339E-10
   6.45488501         1.03647230E-10
   6.55631924         7.21089230E-11
   6.65775347         2.89501114E-11
   6.75918770        -2.41605798E-11
   6.86062145        -8.44342651E-11
   6.96205568        -1.48040649E-10
   7.06348991        -2.10303580E-10
   7.16492414        -2.66014655E-10
   7.26635790        -3.09852755E-10
   7.36779213        -3.36882883E-10
   7.46922636        -3.43093193E-10
   7.57066059        -3.25919264E-10
   7.67209482        -2.84698459E-10
   7.77352858        -2.20999469E-10
   7.87496281        -1.38779391E-10
   7.97639704        -4.43365483E-11
   8.07783127         5.39547816E-11
   8.17926502         1.46117826E-10
   8.28069973         2.21225871E-10
   8.38213348         2.68186418E-10
   8.48356724         2.76597911E-10
   8.58500195         2.37615011E-10
   8.68643570         1.44762327E-10
   8.78787041        -5.35556625E-12
   8.88930416        -2.12485377E-10
   8.99073792        -4.72319739E-10
   9.09217262        -7.76260334E-10
   9.19360638        -1.11134535E-09
   9.29504013        -1.46032508E-09
   9.39647484        -1.80187210E-09
   9.49790859        -2.11090723E-09
   9.59934330        -2.35904940E-09
   9.70077705        -2.51518339E-09
   9.80221081        -2.54617416E-09
   9.90364552        -2.41775822E-09
   10.0050793        -2.09564988E-09
   10.1065140        -1.54689539E-09
   10.2079477        -7.41499029E-10
   10.3093815         3.45666995E-10
   10.4108162         1.73270520E-09
   10.5122499         3.42836914E-09
   10.6136837         5.42968515E-09
   10.7151184         7.71971642E-09
   10.8165522         1.02656896E-08
   10.9179869         1.30177877E-08
   11.0194206         1.59089115E-08
   11.1208544         1.88557152E-08
   11.2222891         2.17612648E-08
   11.3237228         2.45194993E-08
   11.4251575         2.70217040E-08
   11.5265913         2.91649833E-08
   11.6280251         3.08626369E-08
   11.7294598         3.20559970E-08
   11.8308935         3.27273639E-08
   11.9323273         3.29130359E-08
   12.0337620         3.27156542E-08
   12.1351957         3.23146097E-08
   12.2366304         3.19731370E-08
   12.3380642         3.20408766E-08
   12.4394979         3.29501368E-08
   12.5409327         3.52048239E-08
   12.6423664         3.93604438E-08
   12.7438011         4.59943053E-08
   12.8452349         5.56649375E-08
   12.9466686         6.88601958E-08
   13.0481033         8.59339195E-08
   13.1495371         1.07031383E-07
   13.2509708         1.32003876E-07
   13.3524055         1.60313618E-07
   13.4538393         1.90930436E-07
   13.5552740         2.22221587E-07
   13.6567078         2.51837349E-07
   13.7581415         2.76594506E-07
   13.8595762         2.92361051E-07
   13.9610100         2.93945078E-07
   14.0624447         2.74991351E-07
   14.1638784         2.27889686E-07
   14.2653122         1.43699125E-07
   14.3667469         1.20924595E-08
   14.4681807        -1.78675677E-07
   14.5696154        -4.41771419E-07
   14.6710491        -7.91752370E-07
   14.7724829        -1.24450094E-06
   14.8739176        -1.81712255E-06
   14.9753513        -2.52779432E-06
   15.0767851        -3.39558142E-06
   15.1782198        -4.44020361E-06
   15.2796535        -5.68175938E-06
   15.3810883        -7.14041335E-06
   15.4825220        -8.83604662E-06
   15.5839558        -1.07878741E-05
   15.6853905        -1.30140415E-05
   15.7868242        -1.55312064E-05
   15.8882589        -1.83540869E-05
   15.9896927        -2.14950687E-05
   16.0911274        -2.49637687E-05
   16.1925602        -2.87666535E-05
   16.2939949        -3.29066970E-05
   16.3954296        -3.73830480E-05
   16.4968624        -4.21908735E-05
   16.5982971        -4.73210821E-05
   16.6997318        -5.27603006E-05
   16.8011646        -5.84908885E-05
   16.9025993        -6.44909596E-05
   17.0040340        -7.07346262E-05
   17.1054688        -7.71922350E-05
   17.2069016        -8.38308260E-05
   17.3083363        -9.06144560E-05
   17.4097710        -9.75048315E-05
   17.5112038        -1.04461848E-04
   17.6126385        -1.11444315E-04
   17.7140732        -1.18410579E-04
   17.8155060        -1.25319275E-04
   17.9169407        -1.32130051E-04
   18.0183754        -1.38804229E-04
   18.1198101        -1.45305443E-04
   18.2212429        -1.51600441E-04
   18.3226776        -1.57659291E-04
   18.4241123        -1.63456105E-04
   18.5255451        -1.68969273E-04
   18.6269798        -1.74181710E-04
   18.7284145        -1.79080991E-04
   18.8298473        -1.83659286E-04
   18.9312820        -1.87913305E-04
   19.0327168        -1.91843996E-04
   19.1341496        -1.95456247E-04
   19.2355843        -1.98758295E-04
   19.3370190        -2.01761388E-04
   19.4384537        -2.04479016E-04
   19.5398865        -2.06926445E-04
   19.6413212        -2.09119695E-04
   19.7427559        -2.11075487E-04
   19.8441887        -2.12810017E-04
   19.9456234        -2.14338783E-04
   20.0470581        -2.15675871E-04
   20.1484909        -2.16833694E-04
   20.2499256        -2.17822439E-04
   20.3513603        -2.18650297E-04
   20.4527931        -2.19322872E-04
   20.5542278        -2.19843889E-04
   20.6556625        -2.20214715E-04
   20.7570972        -2.20435235E-04
   20.8585300        -2.20503949E-04
   20.9599648        -2.20418719E-04
   21.0613995        -2.20177084E-04
   21.1628323        -2.19777226E-04
   21.2642670        -2.19218549E-04
   21.3657017        -2.18502188E-04
   21.4671345        -2.17631910E-04
   21.5685692        -2.16614542E-04
   21.6700039        -2.15460605E-04
   21.7714367        -2.14184620E-04
   21.8728714        -2.12805506E-04
   21.9743061        -2.11346589E-04
   22.0757408        -2.09835911E-04
   22.1771736        -2.08305413E-04
   22.2786083        -2.06791403E-04
   22.3800430        -2.05333577E-04
   22.4814758        -2.03974501E-04
   22.5829105        -2.02758805E-04
   22.6843452        -2.01732415E-04
   22.7857780        -2.00941431E-04
   22.8872128        -2.00431023E-04
   22.9886475        -2.00244642E-04
   23.0900803        -2.00422539E-04
   23.1915150        -2.01000861E-04
   23.2929497        -2.02010619E-04
   23.3943844        -2.03476564E-04
   23.4958172        -2.05416611E-04
   23.5972519        -2.07840858E-04
   23.6986866        -2.10751183E-04
   23.8001194        -2.14140746E-04
   23.9015541        -2.17993729E-04
   24.0029888        -2.22285744E-04
   24.1044216        -2.26983335E-04
   24.2058563        -2.32045059E-04
   24.3072910        -2.37421438E-04
   24.4087238        -2.43056260E-04
   24.5101585        -2.48887111E-04
   24.6115932        -2.54846702E-04
   24.7130280        -2.60863570E-04
   24.8144608        -2.66863906E-04
   24.9158955        -2.72772333E-04
   25.0173302        -2.78513646E-04
   25.1187630        -2.84013775E-04
   25.2201977        -2.89201329E-04
   25.3216324        -2.94008991E-04
   25.4230652        -2.98374012E-04
   25.5244999        -3.02240252E-04
   25.6259346        -3.05558264E-04
   25.7273674        -3.08286748E-04
   25.8288021        -3.10393021E-04
   25.9302368        -3.11853655E-04
   26.0316715        -3.12654651E-04
   26.1331043        -3.12792254E-04
   26.2345390        -3.12272838E-04
   26.3359737        -3.11112643E-04
   26.4374065        -3.09338240E-04
   26.5388412        -3.06985836E-04
   26.6402760        -3.04101239E-04
   26.7417088        -3.00739164E-04
   26.8431435        -2.96962913E-04
   26.9445782        -2.92843761E-04
   27.0460110        -2.88459589E-04
   27.1474457        -2.83895293E-04
   27.2488804        -2.79240310E-04
   27.3503151        -2.74589489E-04
   27.4517479        -2.70040182E-04
   27.5531826        -2.65692914E-04
   27.6546173        -2.61649111E-04
   27.7560501        -2.58010055E-04
   27.8574848        -2.54876853E-04
   27.9589195        -2.52347934E-04
   28.0603523        -2.50518351E-04
   28.1617870        -2.49479141E-04
   28.2632217        -2.49315344E-04
   28.3646545        -2.50105950E-04
   28.4660892        -2.51922174E-04
   28.5675240        -2.54826795E-04
   28.6689587        -2.58873391E-04
   28.7703915        -2.64105649E-04
   28.8718262        -2.70556746E-04
   28.9732609        -2.78248510E-04
   29.0746937        -2.87191913E-04
   29.1761284        -2.97385704E-04
   29.2775631        -3.08817427E-04
   29.3789959        -3.21462518E-04
   29.4804306        -3.35285149E-04
   29.5818653        -3.50237999E-04
   29.6832981        -3.66262888E-04
   29.7847328        -3.83291364E-04
   29.8861675        -4.01244848E-04
   29.9876022        -4.20036115E-04
   30.0890350        -4.39569150E-04
   30.1904697        -4.59740637E-04
   30.2919044        -4.80440533E-04
   30.3933372        -5.01553121E-04
   30.4947720        -5.22957940E-04
   30.5962067        -5.44530631E-04
   30.6976395        -5.66144707E-04
   30.7990742        -5.87671122E-04
   30.9005089        -6.08980772E-04
   31.0019417        -6.29944843E-04
   31.1033764        -6.50435628E-04
   31.2048111        -6.70327980E-04
   31.3062458        -6.89499546E-04
   31.4076786        -7.07832747E-04
   31.5091133        -7.25214661E-04
   31.6105480        -7.41538650E-04
   31.7119808        -7.56704481E-04
   31.8134155        -7.70619663E-04
   31.9148502        -7.83199910E-04
   32.0162849        -7.94370077E-04
   32.1177177        -8.04064272E-04
   32.2191505        -8.12227139E-04
   32.3205872        -8.18813452E-04
   32.4220200        -8.23789916E-04
   32.5234528        -8.27133888E-04
   32.6248894        -8.28834658E-04
   32.7263222        -8.28893564E-04
   32.8277550        -8.27323529E-04
   32.9291916        -8.24149232E-04
   33.0306244        -8.19407345E-04
   33.1320610        -8.13145190E-04
   33.2334938        -8.05421441E-04
   33.3349266        -7.96304492E-04
   33.4363632        -7.85872573E-04
   33.5377960        -7.74212356E-04
   33.6392288        -7.61418196E-04
   33.7406654        -7.47590908E-04
   33.8420982        -7.32837070E-04
   33.9435310        -7.17266987E-04
   34.0449677        -7.00994220E-04
   34.1464005        -6.84133614E-04
   34.2478333        -6.66800654E-04
   34.3492699        -6.49109134E-04
   34.4507027        -6.31171104E-04
   34.5521355        -6.13094424E-04
   34.6535721        -5.94982528E-04
   34.7550049        -5.76933497E-04
   34.8564377        -5.59037726E-04
   34.9578743        -5.41379326E-04
   35.0593071        -5.24033734E-04
   35.1607399        -5.07068413E-04
   35.2621765        -4.90541570E-04
   35.3636093        -4.74502973E-04
   35.4650421        -4.58993658E-04
   35.5664787        -4.44045931E-04
   35.6679115        -4.29684180E-04
   35.7693481        -4.15924587E-04
   35.8707809        -4.02776379E-04
   35.9722137        -3.90241999E-04
   36.0736504        -3.78318509E-04
   36.1750832        -3.66997003E-04
   36.2765160        -3.56264907E-04
   36.3779526        -3.46105604E-04
   36.4793854        -3.36499710E-04
   36.5808182        -3.27425514E-04
   36.6822548        -3.18859762E-04
   36.7836876        -3.10778036E-04
   36.8851204        -3.03155510E-04
   36.9865570        -2.95967067E-04
   37.0879898        -2.89187883E-04
   37.1894226        -2.82793219E-04
   37.2908592        -2.76759354E-04
   37.3922920        -2.71062687E-04
   37.4937248        -2.65680748E-04
   37.5951614        -2.60591361E-04
   37.6965942        -2.55773164E-04
   37.7980270        -2.51204969E-04
   37.8994637        -2.46866024E-04
   38.0008965        -2.42735550E-04
   38.1023293        -2.38792854E-04
   38.2037659        -2.35016894E-04
   38.3051987        -2.31386293E-04
   38.4066353        -2.27879296E-04
   38.5080681        -2.24473377E-04
   38.6095009        -2.21145558E-04
   38.7109375        -2.17872395E-04
   38.8123703        -2.14629836E-04
   38.9138031        -2.11393650E-04
   39.0152397        -2.08139405E-04
   39.1166725        -2.04842829E-04
   39.2181053        -2.01480070E-04
   39.3195419        -1.98028269E-04
   39.4209747        -1.94465727E-04
   39.5224075        -1.90772378E-04
   39.6238441        -1.86930352E-04
   39.7252769        -1.82924268E-04
   39.8267097        -1.78741771E-04
   39.9281464        -1.74374072E-04
   40.0295792        -1.69815845E-04
   40.1310120        -1.65066085E-04
   40.2324486        -1.60127907E-04
   40.3338814        -1.55008951E-04
   40.4353142        -1.49721294E-04
   40.5367508        -1.44281425E-04
   40.6381836        -1.38709991E-04
   40.7396202        -1.33031630E-04
   40.8410530        -1.27274572E-04
   40.9424858        -1.21469995E-04
   41.0439224        -1.15651710E-04
   41.1453552        -1.09855275E-04
   41.2467880        -1.04117447E-04
   41.3482246        -9.84753133E-05
   41.4496574        -9.29655653E-05
   41.5510902        -8.76237827E-05
   41.6525269        -8.24836607E-05
   41.7539597        -7.75761946E-05
   41.8553925        -7.29292296E-05
   41.9568291        -6.85667328E-05
   42.0582619        -6.45084583E-05
   42.1596947        -6.07695292E-05
   42.2611313        -5.73602047E-05
   42.3625641        -5.42858434E-05
   42.4639969        -5.15468455E-05
   42.5654335        -4.91389183E-05
   42.6668663        -4.70532541E-05
   42.7682991        -4.52769491E-05
   42.8697357        -4.37935232E-05
   42.9711685        -4.25834187E-05
   43.0726013        -4.16246912E-05
   43.1740379        -4.08935994E-05
   43.2754707        -4.03653685E-05
   43.3769073        -4.00148128E-05
   43.4783401        -3.98170087E-05
   43.5797729        -3.97479562E-05
   43.6812096        -3.97850963E-05
   43.7826424        -3.99078563E-05
   43.8840752        -4.00980534E-05
   43.9855118        -4.03402337E-05
   44.0869446        -4.06219588E-05
   44.1883774        -4.09339445E-05
   44.2898140        -4.12701120E-05
   44.3912468        -4.16276343E-05
   44.4926796        -4.20067881E-05
   44.5941162        -4.24108330E-05
   44.6955490        -4.28457242E-05
   44.7969818        -4.33198984E-05
   44.8984184        -4.38438510E-05
   44.9998512        -4.44298967E-05
   45.1012840        -4.50916814E-05
   45.2027206        -4.58438190E-05
   45.3041534        -4.67014725E-05
   45.4055862        -4.76799542E-05
   45.5070229        -4.87943071E-05
   45.6084557        -5.00588867E-05
   45.7098885        -5.14870080E-05
   45.8113251        -5.30906109E-05
   45.9127579        -5.48797398E-05
   46.0141945        -5.68625110E-05
   46.1156273        -5.90445561E-05
   46.2170601        -6.14288365E-05
   46.3184967        -6.40156359E-05
   46.4199295        -6.68019784E-05
   46.5213623        -6.97819269E-05
   46.6227989        -7.29462554E-05
   46.7242317        -7.62824639E-05
   46.8256645        -7.97749453E-05
   46.9271011        -8.34049715E-05
   47.0285339        -8.71509765E-05
   47.1299667        -9.09887094E-05
   47.2314034        -9.48916713E-05
   47.3328362        -9.88313259E-05
   47.4342690        -1.02777733E-04
   47.5357056        -1.06699896E-04
   47.6371384        -1.10566361E-04
   47.7385712        -1.14345676E-04
   47.8400078        -1.18007156E-04
   47.9414406        -1.21521414E-04
   48.0428734        -1.24860861E-04
   48.1443100        -1.28000436E-04
   48.2457428        -1.30918081E-04
   48.3471756        -1.33595269E-04
   48.4486122        -1.36017450E-04
   48.5500450        -1.38174451E-04
   48.6514816        -1.40060685E-04
   48.7529144        -1.41675526E-04
   48.8543472        -1.43023120E-04
   48.9557838        -1.44112666E-04
   49.0572166        -1.44957972E-04
   49.1586494        -1.45577331E-04
   49.2600861        -1.45993108E-04
   49.3615189        -1.46231119E-04
   49.4629517        -1.46320061E-04
   49.5643883        -1.46290724E-04
   49.6658211        -1.46175284E-04
   49.7672539        -1.46006176E-04
   49.8686905        -1.45815429E-04
   49.9701233        -1.45633603E-04
   50.0715561        -1.45488913E-04
   50.1729927        -1.45406448E-04
   50.2744255        -1.45407277E-04
   50.3758583        -1.45507875E-04
   50.4772949        -1.45719561E-04
   50.5787277        -1.46048071E-04
   50.6801605        -1.46493490E-04
   50.7815971        -1.47050087E-04
   50.8830299        -1.47706451E-04
   50.9844627        -1.48446052E-04
   51.0858994        -1.49247557E-04
   51.1873322        -1.50085645E-04
   51.2887688        -1.50931781E-04
   51.3902016        -1.51755317E-04
   51.4916344        -1.52524459E-04
   51.5930710        -1.53207380E-04
   51.6945038        -1.53773435E-04
   51.7959366        -1.54194262E-04
   51.8973732        -1.54444904E-04
   51.9988060        -1.54504669E-04
   52.1002388        -1.54358248E-04
   52.2016754        -1.53996152E-04
   52.3031082        -1.53415414E-04
   52.4045410        -1.52619992E-04
   52.5059776        -1.51620741E-04
   52.6074104        -1.50435502E-04
   52.7088432        -1.49088854E-04
   52.8102798        -1.47611441E-04
   52.9117126        -1.46039514E-04
   53.0131454        -1.44414022E-04
   53.1145821        -1.42779594E-04
   53.2160149        -1.41183467E-04
   53.3174477        -1.39674230E-04
   53.4188843        -1.38300689E-04
   53.5203171        -1.37110474E-04
   53.6217537        -1.36148738E-04
   53.7231865        -1.35457056E-04
   53.8246193        -1.35072158E-04
   53.9260559        -1.35024893E-04
   54.0274887        -1.35339404E-04
   54.1289215        -1.36032293E-04
   54.2303581        -1.37111929E-04
   54.3317909        -1.38578456E-04
   54.4332237        -1.40423188E-04
   54.5346603        -1.42628778E-04
   54.6360931        -1.45169673E-04
   54.7375259        -1.48012274E-04
   54.8389626        -1.51115688E-04
   54.9403954        -1.54432608E-04
   55.0418282        -1.57910079E-04
   55.1432648        -1.61490985E-04
   55.2446976        -1.65114805E-04
   55.3461304        -1.68719285E-04
   55.4475670        -1.72241518E-04
   55.5489998        -1.75619542E-04
   55.6504326        -1.78793416E-04
   55.7518692        -1.81706666E-04
   55.8533020        -1.84307530E-04
   55.9547348        -1.86549951E-04
   56.0561714        -1.88394493E-04
   56.1576042        -1.89809405E-04
   56.2590408        -1.90770937E-04
   56.3604736        -1.91264233E-04
   56.4619064        -1.91283092E-04
   56.5633430        -1.90830484E-04
   56.6647758        -1.89918239E-04
   56.7662086        -1.88566803E-04
   56.8676453        -1.86804842E-04
   56.9690781        -1.84668534E-04
   57.0705109        -1.82200776E-04
   57.1719475        -1.79450464E-04
   57.2733803        -1.76471294E-04
   57.3748131        -1.73320776E-04
   57.4762497        -1.70059197E-04
   57.5776825        -1.66748214E-04
   57.6791153        -1.63449906E-04
   57.7805519        -1.60225405E-04
   57.8819847        -1.57134025E-04
   57.9834175        -1.54231893E-04
   58.0848541        -1.51571177E-04
   58.1862869        -1.49199113E-04
   58.2877197        -1.47157247E-04
   58.3891563        -1.45480662E-04
   58.4905891        -1.44197751E-04
   58.5920219        -1.43329482E-04
   58.6934586        -1.42889476E-04
   58.7948914        -1.42883771E-04
   58.8963280        -1.43310885E-04
   58.9977608        -1.44162055E-04
   59.0991936        -1.45421654E-04
   59.2006302        -1.47067549E-04
   59.3020630        -1.49071653E-04
   59.4034958        -1.51400745E-04
   59.5049324        -1.54017078E-04
   59.6063652        -1.56879149E-04
   59.7077980        -1.59942705E-04
   59.8092346        -1.63161429E-04
   59.9106674        -1.66487822E-04
   60.0121002        -1.69874213E-04
   60.1135368        -1.73273278E-04
   60.2149696        -1.76639034E-04
   60.3164024        -1.79927360E-04
   60.4178391        -1.83096723E-04
   60.5192719        -1.86108780E-04
   60.6207047        -1.88928447E-04
   60.7221413        -1.91524901E-04
   60.8235741        -1.93871165E-04
   60.9250069        -1.95944871E-04
   61.0264435        -1.97727990E-04
   61.1278763        -1.99207032E-04
   61.2293091        -2.00372961E-04
   61.3307457        -2.01221133E-04
   61.4321785        -2.01750954E-04
   61.5336151        -2.01965988E-04
   61.6350479        -2.01873307E-04
   61.7364807        -2.01483650E-04
   61.8379173        -2.00810682E-04
   61.9393501        -1.99871138E-04
   62.0407829        -1.98683920E-04
   62.1422195        -1.97270288E-04
   62.2436523        -1.95653120E-04
   62.3450851        -1.93856817E-04
   62.4465218        -1.91906729E-04
   62.5479546        -1.89828963E-04
   62.6493874        -1.87649988E-04
   62.7508240        -1.85396042E-04
   62.8522568        -1.83093158E-04
   62.9536896        -1.80766627E-04
   63.0551262        -1.78440547E-04
   63.1565590        -1.76137837E-04
   63.2579918        -1.73879598E-04
   63.3594284        -1.71685169E-04
   63.4608612        -1.69571678E-04
   63.5622940        -1.67553982E-04
   63.6637306        -1.65644495E-04
   63.7651634        -1.63853067E-04
   63.8665962        -1.62186960E-04
   63.9680328        -1.60650918E-04
   64.0694656        -1.59247167E-04
   64.1708984        -1.57975577E-04
   64.2723312        -1.56833848E-04
   64.3737717        -1.55817834E-04
   64.4752045        -1.54921610E-04
   64.5766373        -1.54138004E-04
   64.6780701        -1.53458954E-04
   64.7795029        -1.52875509E-04
   64.8809357        -1.52378663E-04
   64.9823761        -1.51959423E-04
   65.0838089        -1.51609216E-04
   65.1852417        -1.51320157E-04
   65.2866745        -1.51085333E-04
   65.3881073        -1.50898981E-04
   65.4895477        -1.50756634E-04
   65.5909805        -1.50655193E-04
   65.6924133        -1.50592983E-04
   65.7938461        -1.50569525E-04
   65.8952789        -1.50585620E-04
   65.9967117        -1.50643042E-04
   66.0981522        -1.50744352E-04
   66.1995850        -1.50892578E-04
   66.3010178        -1.51091037E-04
   66.4024506        -1.51342800E-04
   66.5038834        -1.51650689E-04
   66.6053162        -1.52016786E-04
   66.7067566        -1.52442284E-04
   66.8081894        -1.52927285E-04
   66.9096222        -1.53470726E-04
   67.0110550        -1.54070251E-04
   67.1124878        -1.54722249E-04
   67.2139206        -1.55421963E-04
   67.3153610        -1.56163631E-04
   67.4167938        -1.56940732E-04
   67.5182266        -1.57746239E-04
   67.6196594        -1.58572904E-04
   67.7210922        -1.59413743E-04
   67.8225327        -1.60262251E-04
   67.9239655        -1.61112839E-04
   68.0253983        -1.61961158E-04
   68.1268311        -1.62804470E-04
   68.2282639        -1.63641802E-04
   68.3296967        -1.64474099E-04
   68.4311371        -1.65304504E-04
   68.5325699        -1.66138270E-04
   68.6340027        -1.66982674E-04
   68.7354355        -1.67846942E-04
   68.8368683        -1.68741943E-04
   68.9383011        -1.69680017E-04
   69.0397415        -1.70674466E-04
   69.1411743        -1.71739201E-04
   69.2426071        -1.72888293E-04
   69.3440399        -1.74135392E-04
   69.4454727        -1.75493391E-04
   69.5469055        -1.76973714E-04
   69.6483459        -1.78586080E-04
   69.7497787        -1.80337782E-04
   69.8512115        -1.82233431E-04
   69.9526443        -1.84274526E-04
   70.0540771        -1.86459278E-04
   70.1555099        -1.88782127E-04
   70.2569504        -1.91233747E-04
   70.3583832        -1.93801025E-04
   70.4598160        -1.96466674E-04
   70.5612488        -1.99209811E-04
   70.6626816        -2.02005613E-04
   70.7641220        -2.04825803E-04
   70.8655548        -2.07638877E-04
   70.9669876        -2.10410290E-04
   71.0684204        -2.13103092E-04
   71.1698532        -2.15678127E-04
   71.2712860        -2.18094850E-04
   71.3727264        -2.20311587E-04
   71.4741592        -2.22286180E-04
   71.5755920        -2.23976953E-04
   71.6770248        -2.25342766E-04
   71.7784576        -2.26344244E-04
   71.8798904        -2.26944176E-04
   71.9813309        -2.27108219E-04
   72.0827637        -2.26805729E-04
   72.1841965        -2.26010277E-04
   72.2856293        -2.24700416E-04
   72.3870621        -2.22860152E-04
   72.4884949        -2.20479575E-04
   72.5899353        -2.17555455E-04
   72.6913681        -2.14091400E-04
   72.7928009        -2.10098413E-04
   72.8942337        -2.05595032E-04
   72.9956665        -2.00607334E-04
   73.0971069        -1.95169079E-04
   73.1985397        -1.89321450E-04
   73.2999725        -1.83112847E-04
   73.4014053        -1.76598332E-04
   73.5028381        -1.69839332E-04
   73.6042709        -1.62902536E-04
   73.7057114        -1.55859525E-04
   73.8071442        -1.48785388E-04
   73.9085770        -1.41758064E-04
   74.0100098        -1.34857008E-04
   74.1114426        -1.28161948E-04
   74.2128754        -1.21751807E-04
   74.3143158        -1.15703369E-04
   74.4157486        -1.10090041E-04
   74.5171814        -1.04980652E-04
   74.6186142        -1.00438323E-04
   74.7200470        -9.65194049E-05
   74.8214798        -9.32724943E-05
   74.9229202        -9.07377471E-05
   75.0243530        -8.89460862E-05
   75.1257858        -8.79186846E-05
   75.2272186        -8.76668346E-05
   75.3286514        -8.81914748E-05
   75.4300842        -8.94835830E-05
   75.5315247        -9.15240526E-05
   75.6329575        -9.42843762E-05
   75.7343903        -9.77269374E-05
   75.8358231        -1.01805999E-04
   75.9372559        -1.06468207E-04
   76.0386963        -1.11653790E-04
   76.1401291        -1.17297546E-04
   76.2415619        -1.23329897E-04
   76.3429947        -1.29678039E-04
   76.4444275        -1.36267190E-04
   76.5458603        -1.43021505E-04
   76.6473007        -1.49865489E-04
   76.7487335        -1.56724796E-04
   76.8501663        -1.63527409E-04
   76.9515991        -1.70204425E-04
   77.0530319        -1.76690912E-04
   77.1544647        -1.82926611E-04
   77.2559052        -1.88856618E-04
   77.3573380        -1.94431690E-04
   77.4587708        -1.99608985E-04
   77.5602036        -2.04352007E-04