  -4.50000000         0.00000000    
  -4.37320757         0.00000000    
  -4.24641466         0.00000000    
  -4.11962223         0.00000000    
  -3.99282932         0.00000000    
  -3.86603665         0.00000000    
  -3.73924398        -9.93686591E-33
  -3.61245155        -7.88996158E-32
  -3.48565888         8.04691299E-32
  -3.35886621         1.16128197E-30
  -3.23207355        -4.52962454E-31
  -3.10528088         1.15130979E-29
  -2.97848821         7.35195289E-29
  -2.85169554         2.13106146E-28
  -2.72490287         3.75305174E-28
  -2.59811020         2.36305513E-28
  -2.47131753        -9.25224353E-28
  -2.34452486        -3.98071539E-27
  -2.21773219        -8.81650284E-27
  -2.09093952        -1.20416127E-26
  -1.96414697        -4.29774387E-27
  -1.83735430         3.01808506E-26
  -1.71056163         1.07136038E-25
  -1.58376896         2.24238692E-25
  -1.45697629         3.31121185E-25
  -1.33018374         2.98088029E-25
  -1.20339108        -9.01360174E-26
  -1.07659841        -1.07653028E-24
 -0.949805737        -2.77568164E-24
 -0.823013067        -4.92548854E-24
 -0.696220458        -6.63708123E-24
 -0.569427788        -6.34815816E-24
 -0.442635119        -2.27940866E-24
 -0.315842479         6.31997374E-24
 -0.189049825         1.70740770E-23
  -6.22571707E-02     2.19595478E-23
   6.45354837E-02     5.50562197E-24
  0.191328138        -5.44359147E-23
  0.318120778        -1.81225937E-22
  0.444913447        -3.87831284E-22
  0.571706116        -6.59693957E-22
  0.698498726        -9.36163880E-22
  0.825291395        -1.09877333E-21
  0.952084064        -9.77960734E-22
   1.07887673        -3.90068039E-22
   1.20566940         7.88854443E-22
   1.33246195         2.51800806E-21
   1.45925462         4.47919513E-21
   1.58604729         6.00003333E-21
   1.71283996         6.07053109E-21
   1.83963263         3.50932667E-21
   1.96642530        -2.68934290E-21
   2.09321785        -1.28495052E-20
   2.22001052        -2.60439609E-20
   2.34680319        -3.96354350E-20
   2.47359586        -4.91561062E-20
   2.60038853        -4.87494693E-20
   2.72718120        -3.23101109E-20
   2.85397387         4.72306518E-21
   2.98076653         6.32139244E-20
   3.10755920         1.38367361E-19
   3.23435187         2.18687684E-19
   3.36114454         2.86588485E-19
   3.48793697         3.21139793E-19
   3.61472964         3.02935176E-19
   3.74152231         2.20379734E-19
   3.86831498         7.60053161E-20
   3.99510765        -1.09047504E-19
   4.12190056        -2.94258284E-19
   4.24869299        -4.23954000E-19
   4.37548542        -4.36662442E-19
   4.50227833        -2.78212919E-19
   4.62907076         8.42079880E-20
   4.75586367         6.50650499E-19
   4.88265610         1.38304495E-18
   5.00944901         2.20790822E-18
   5.13624144         3.02684763E-18
   5.26303434         3.73209789E-18
   5.38982677         4.22255189E-18
   5.51661968         4.41558772E-18
   5.64341211         4.25179603E-18
   5.77020502         3.69317656E-18
   5.89699745         2.71923942E-18
   6.02379036         1.32793559E-18
   6.15058279        -4.52242957E-19
   6.27737522        -2.53713975E-18
   6.40416813        -4.75469827E-18
   6.53096056        -6.82008016E-18
   6.65775347        -8.33827671E-18
   6.78454590        -8.85329094E-18
   6.91133881        -7.95306283E-18
   7.03813124        -5.42089216E-18
   7.16492414        -1.40207807E-18
   7.29171658         3.46428845E-18
   7.41850948         8.00526620E-18
   7.54530191         1.06112896E-17
   7.67209482         9.48526602E-18
   7.79888725         3.01344730E-18
   7.92567968        -9.81863635E-18
   8.05247211        -2.90741776E-17
   8.17926502        -5.36897260E-17
   8.30605793        -8.15560975E-17
   8.43285084        -1.09869835E-16
   8.55964279        -1.35685017E-16
   8.68643570        -1.56519923E-16
   8.81322861        -1.70828705E-16
   8.94002151        -1.78161204E-16
   9.06681347        -1.78903523E-16
   9.19360638        -1.73612757E-16
   9.32039928        -1.62095570E-16
   9.44719219        -1.42498060E-16
   9.57398415        -1.10733391E-16
   9.70077705        -6.05482907E-17
   9.82756996         1.55803323E-17
   9.95436192         1.24711123E-16
   10.0811548         2.71068993E-16
   10.2079477         4.53442942E-16
   10.3347406         6.62891849E-16
   10.4615326         8.81352658E-16
   10.5883255         1.08168712E-15
   10.7151184         1.22955588E-15
   10.8419113         1.28726519E-15
   10.9687033         1.21943681E-15
   11.0954962         1.00000752E-15
   11.2222891         6.19741291E-16
   11.3490820         9.31249727E-17
   11.4758739        -5.36685105E-16
   11.6026669        -1.19625330E-15
   11.7294598        -1.78483246E-15
   11.8562517        -2.18272090E-15
   11.9830446        -2.26514271E-15
   12.1098375        -1.92086955E-15
   12.2366304        -1.07378515E-15
   12.3634224         2.95348107E-16
   12.4902153         2.13034779E-15
   12.6170082         4.28791117E-15
   12.7438011         6.53600226E-15
   12.8705931         8.56450768E-15
   12.9973860         1.00088022E-14
   13.1241789         1.04850168E-14
   13.2509708         9.63383256E-15
   13.3777637         7.16825264E-15
   13.5045567         2.91973443E-15
   13.6313496        -3.12285801E-15
   13.7581415        -1.07864022E-14
   13.8849344        -1.97020965E-14
   14.0117273        -2.93110364E-14
   14.1385202        -3.88863475E-14
   14.2653122        -4.75698379E-14
   14.3921051        -5.44201457E-14
   14.5188980        -5.84688683E-14
   14.6456909        -5.87816403E-14
   14.7724829        -5.45214339E-14
   14.8992758        -4.50126115E-14
   15.0260687        -2.98040977E-14
   15.1528606        -8.72992305E-15
   15.2796535         1.80353118E-14
   15.4064465         4.99300478E-14
   15.5332394         8.59747522E-14
   15.6600313         1.24763223E-13
   15.7868242         1.64483756E-13
   15.9136171         2.02976836E-13
   16.0404091         2.37833055E-13
   16.1672020         2.66529339E-13
   16.2939949         2.86597270E-13
   16.4207878         2.95808029E-13
   16.5475807         2.92356417E-13
   16.6743736         2.75017720E-13
   16.8011646         2.43253795E-13
   16.9279575         1.97245012E-13
   17.0547504         1.37831749E-13
   17.1815434         6.63583907E-14
   17.3083363        -1.55743999E-14
   17.4351292        -1.06427366E-13
   17.5619221        -2.05079538E-13
   17.6887150        -3.11174616E-13
   17.8155060        -4.25403988E-13
   17.9422989        -5.49665511E-13
   18.0690918        -6.87039455E-13
   18.1958847        -8.41530242E-13
   18.3226776        -1.01753545E-12
   18.4494705        -1.21902130E-12
   18.5762634        -1.44841062E-12
   18.7030544        -1.70521941E-12
   18.8298473        -1.98450783E-12
   18.9566402        -2.27525594E-12
   19.0834332        -2.55880950E-12
   19.2102261        -2.80757730E-12
   19.3370190        -2.98419752E-12
   19.4638119        -3.04141499E-12
   19.5906048        -2.92290367E-12
   19.7173958        -2.56527633E-12
   19.8441887        -1.90144840E-12
   19.9709816        -8.65467257E-13
   20.0977745         6.01199862E-13
   20.2245674         2.54207636E-12
   20.3513603         4.97708862E-12
   20.4781532         7.89348621E-12
   20.6049442         1.12369046E-11
   20.7317371         1.49033980E-11
   20.8585300         1.87333222E-11
   20.9853230         2.25080319E-11
   21.1121159         2.59503218E-11
   21.2389088         2.87294008E-11
   21.3657017         3.04711117E-11
   21.4924946         3.07736683E-11
   21.6192856         2.92291018E-11
   21.7460785         2.54500171E-11
   21.8728714         1.91009656E-11
   21.9996643         9.93317754E-12
   22.1264572        -2.17878883E-12
   22.2532501        -1.72007374E-11
   22.3800430        -3.49051517E-11
   22.5068340        -5.48429184E-11
   22.6336269        -7.63233851E-11
   22.7604198        -9.84056725E-11
   22.8872128        -1.19904045E-10
   23.0140057        -1.39409845E-10
   23.1407986        -1.55331706E-10
   23.2675915        -1.65955263E-10
   23.3943844        -1.69522105E-10
   23.5211754        -1.64326788E-10
   23.6479683        -1.48829268E-10
   23.7747612        -1.21778795E-10
   23.9015541        -8.23431184E-11
   24.0283470        -3.02371357E-11
   24.1551399         3.41580063E-11
   24.2819328         1.09693206E-10
   24.4087238         1.94376903E-10
   24.5355167         2.85335977E-10
   24.6623096         3.78821169E-10
   24.7891026         4.70262884E-10
   24.9158955         5.54383206E-10
   25.0426884         6.25366592E-10
   25.1694813         6.77087553E-10
   25.2962742         7.03393011E-10
   25.4230652         6.98430813E-10
   25.5498581         6.57012611E-10
   25.6766510         5.74997272E-10
   25.8034439         4.49676046E-10
   25.9302368         2.80138468E-10
   26.0570297         6.75970044E-11
   26.1838226        -1.84352575E-10
   26.3106136        -4.69558614E-10
   26.4374065        -7.79248610E-10
   26.5641994        -1.10209186E-09
   26.6909924        -1.42439871E-09
   26.8177853        -1.73047054E-09
   26.9445782        -2.00309480E-09
   27.0713711        -2.22418417E-09
   27.1981640        -2.37554154E-09
   27.3249550        -2.43973131E-09
   27.4517479        -2.40102249E-09
   27.5785408        -2.24637442E-09
   27.7053337        -1.96640682E-09
   27.8321266        -1.55632385E-09
   27.9589195        -1.01672371E-09
   28.0857124        -3.54254154E-10
   28.2125034         4.17940904E-10
   28.3392963         1.28002997E-09
   28.4660892         2.20559282E-09
   28.5928822         3.16204107E-09
   28.7196751         4.11137080E-09
   28.8464680         5.01125719E-09
   28.9732609         5.81646376E-09
   29.1000538         6.48055076E-09
   29.2268448         6.95781033E-09
   29.3536377         7.20539006E-09
   29.4804306         7.18549575E-09
   29.6072235         6.86760648E-09
   29.7340164         6.23057383E-09
   29.8608093         5.26451371E-09
   29.9876022         3.97238553E-09
   30.1143932         2.37113595E-09
   30.2411861         4.92339058E-10
   30.3679790        -1.61775426E-09
   30.4947720        -3.89881238E-09
   30.6215649        -6.27768859E-09
   30.7483578        -8.67035155E-09
   30.8751507        -1.09844551E-08
   31.0019417        -1.31224729E-08
   31.1287346        -1.49853019E-08
   31.2555275        -1.64762035E-08
   31.3823204        -1.75049397E-08
   31.5091133        -1.79919244E-08
   31.6359062        -1.78721784E-08
   31.7626991        -1.70989765E-08
   31.8894920        -1.56468971E-08
   32.0162849        -1.35142217E-08
   32.1430779        -1.07244436E-08
   32.2698708        -7.32685290E-09
   32.3966637        -3.39607298E-09
   32.5234528         9.69424430E-10
   32.6502457         5.64984326E-09
   32.7770386         1.05075237E-08
   32.9038315         1.53912367E-08
   33.0306244         2.01411332E-08
   33.1574173         2.45941791E-08
   33.2842102         2.85898096E-08
   33.4110031         3.19756381E-08
   33.5377960         3.46128850E-08
   33.6645889         3.63814436E-08
   33.7913818         3.71841971E-08
   33.9181747         3.69505955E-08
   34.0449677         3.56392249E-08
   34.1717606         3.32393881E-08
   34.2985535         2.97715790E-08
   34.4253426         2.52869494E-08
   34.5521355         1.98657908E-08
   34.6789284         1.36151570E-08
   34.8057213         6.66575728E-09
   34.9325142        -8.31665403E-10
   35.0593071        -8.71034089E-09
   35.1861000        -1.67916596E-08
   35.3128929        -2.48893652E-08
   35.4396858        -3.28136665E-08
   35.5664787        -4.03750242E-08
   35.6932716        -4.73877613E-08
   35.8200645        -5.36732188E-08
   35.9468575        -5.90626961E-08
   36.0736504        -6.34000443E-08
   36.2004433        -6.65440965E-08
   36.3272324        -6.83710226E-08
   36.4540253        -6.87766999E-08
   36.5808182        -6.76790748E-08
   36.7076111        -6.50208563E-08
   36.8344040        -6.07722228E-08
   36.9611969        -5.49338530E-08
   37.0879898        -4.75399737E-08
   37.2147827        -3.86613728E-08
   37.3415756        -2.84082109E-08
   37.4683685        -1.69323435E-08
   37.5951614        -4.42886483E-09
   37.7219543         8.86339180E-09
   37.8487473         2.26627730E-08
   37.9755402         3.66474033E-08
   38.1023293         5.04596862E-08
   38.2291222         6.37129958E-08
   38.3559151         7.60005179E-08
   38.4827080         8.69062475E-08
   38.6095009         9.60181268E-08
   38.7362938         1.02942870E-07
   38.8630867         1.07322023E-07
   38.9898796         1.08848980E-07
   39.1166725         1.07285949E-07
   39.2434654         1.02480342E-07
   39.3702583         9.43794660E-08
   39.4970512         8.30431901E-08
   39.6238441         6.86531294E-08
   39.7506371         5.15179508E-08
   39.8774300         3.20740483E-08
   40.0042191         1.08810081E-08
   40.1310120        -1.13884688E-08
   40.2578049        -3.39641915E-08
   40.3845978        -5.59997382E-08
   40.5113907        -7.65986741E-08
   40.6381836        -9.48453689E-08
   40.7649765        -1.09839213E-07
   40.8917694        -1.20731414E-07
   41.0185623        -1.26762771E-07
   41.1453552        -1.27301050E-07
   41.2721481        -1.21876539E-07
   41.3989410        -1.10214117E-07
   41.5257339        -9.22601799E-08
   41.6525269        -6.82033772E-08
   41.7793198        -3.84876380E-08
   41.9061089        -3.81668519E-09
   42.0329018         3.48505687E-08
   42.1596947         7.63139454E-08
   42.2864876         1.19155466E-07
   42.4132805         1.61771240E-07
   42.5400734         2.02411485E-07
   42.6668663         2.39227063E-07
   42.7936592         2.70320839E-07
   42.9204521         2.93802316E-07
   43.0472450         3.07843237E-07
   43.1740379         3.10731480E-07
   43.3008308         3.00922721E-07
   43.4276237         2.77085036E-07
   43.5544167         2.38137019E-07
   43.6812096         1.83276413E-07
   43.8079987         1.11997707E-07
   43.9347916         2.40985223E-08
   44.0615845        -8.03259965E-08
   44.1883774        -2.00901042E-07
   44.3151703        -3.37001183E-07
   44.4419632        -4.87789919E-07
   44.5687561        -6.52267829E-07
   44.6955490        -8.29327576E-07
   44.8223419        -1.01781234E-06
   44.9491348        -1.21657740E-06
   45.0759277        -1.42454883E-06
   45.2027206        -1.64077824E-06
   45.3295135        -1.86449154E-06
   45.4563065        -2.09512632E-06
   45.5830994        -2.33235778E-06
   45.7098885        -2.57611100E-06
   45.8366814        -2.82655537E-06
   45.9634743        -3.08408903E-06
   46.0902672        -3.34929609E-06
   46.2170601        -3.62290120E-06
   46.3438530        -3.90569903E-06
   46.4706459        -4.19847674E-06
   46.5974388        -4.50192829E-06
   46.7242317        -4.81655707E-06
   46.8510246        -5.14258454E-06
   46.9778175        -5.47985292E-06
   47.1046104        -5.82774192E-06
   47.2314034        -6.18509057E-06
   47.3581963        -6.55013628E-06
   47.4849892        -6.92047615E-06
   47.6117783        -7.29304611E-06
   47.7385712        -7.66413177E-06
   47.8653641        -8.02939485E-06
   47.9921570        -8.38394408E-06
   48.1189499        -8.72241890E-06
   48.2457428        -9.03910495E-06
   48.3725357        -9.32807598E-06
   48.4993286        -9.58335841E-06
   48.6261215        -9.79909146E-06
   48.7529144        -9.96972449E-06
   48.8797073        -1.00902025E-05
   49.0065002        -1.01561454E-05
   49.1332932        -1.01640253E-05
   49.2600861        -1.01113255E-05
   49.3868790        -9.99667100E-06
   49.5136681        -9.81993526E-06
   49.6404610        -9.58230339E-06
   49.7672539        -9.28630925E-06
   49.8940468        -8.93581637E-06
   50.0208397        -8.53596157E-06
   50.1476326        -8.09306857E-06
   50.2744255        -7.61449655E-06
   50.4012184        -7.10847462E-06
   50.5280113        -6.58389172E-06
   50.6548042        -6.05006198E-06
   50.7815971        -5.51647781E-06
   50.9083900        -4.99254793E-06
   51.0351830        -4.48733499E-06
   51.1619759        -4.00930639E-06
   51.2887688        -3.56609166E-06
   51.4155579        -3.16428100E-06
   51.5423508        -2.80924064E-06
   51.6691437        -2.50497533E-06
   51.7959366        -2.25403664E-06
   51.9227295        -2.05747642E-06
   52.0495224        -1.91484014E-06
   52.1763153        -1.82422025E-06
   52.3031082        -1.78235598E-06
   52.4299011        -1.78476694E-06
   52.5566940        -1.82592726E-06
   52.6834869        -1.89946775E-06
   52.8102798        -1.99840315E-06
   52.9370728        -2.11537326E-06
   53.0638657        -2.24288669E-06
   53.1906586        -2.37356244E-06
   53.3174477        -2.50036010E-06
   53.4442406        -2.61677951E-06
   53.5710335        -2.71706244E-06
   53.6978264        -2.79632854E-06
   53.8246193        -2.85070269E-06
   53.9514122        -2.87738885E-06
   54.0782051        -2.87470630E-06
   54.2049980        -2.84210591E-06
   54.3317909        -2.78012794E-06
   54.4585838        -2.69033990E-06
   54.5853767        -2.57524380E-06
   54.7121696        -2.43816680E-06
   54.8389626        -2.28312342E-06
   54.9657555        -2.11468614E-06
   55.0925484        -1.93781375E-06
   55.2193375        -1.75773971E-06
   55.3461304        -1.57979650E-06
   55.4729233        -1.40929285E-06
   55.5997162        -1.25140696E-06
   55.7265091        -1.11104475E-06
   55.8533020        -9.92764512E-07
   55.9800949        -9.00683915E-07
   56.1068878        -8.38419282E-07
   56.2336807        -8.09013216E-07
   56.3604736        -8.14901910E-07
   56.4872665        -8.57853820E-07
   56.6140594        -9.38944652E-07
   56.7408524        -1.05852882E-06
   56.8676453        -1.21619564E-06
   56.9944382        -1.41075088E-06
   57.1212273        -1.64019400E-06
   57.2480202        -1.90169180E-06
   57.3748131        -2.19155595E-06
   57.5016060        -2.50523931E-06
   57.6283989        -2.83733652E-06
   57.7551918        -3.18160323E-06
   57.8819847        -3.53097721E-06
   58.0087776        -3.87765976E-06
   58.1355705        -4.21316599E-06
   58.2623634        -4.52845325E-06
   58.3891563        -4.81406414E-06
   58.5159492        -5.06027254E-06
   58.6427422        -5.25730275E-06
   58.7695351        -5.39555367E-06
   58.8963280        -5.46583169E-06
   59.0231171        -5.45962985E-06
   59.1499100        -5.36940115E-06
   59.2767029        -5.18883462E-06
   59.4034958        -4.91313176E-06
   59.5302887        -4.53924986E-06
   59.6570816        -4.06614299E-06
   59.7838745        -3.49495599E-06
   59.9106674        -2.82913788E-06
   60.0374603        -2.07456787E-06
   60.1642532        -1.23954214E-06
   60.2910461        -3.34751945E-07
   60.4178391         6.26845406E-07
   60.5446320         1.63023799E-06
   60.6714249         2.65861263E-06
   60.7982178         3.69371310E-06
   60.9250069         4.71620842E-06
   61.0517998         5.70619704E-06
   61.1785927         6.64367508E-06
   61.3053856         7.50906884E-06
   61.4321785         8.28379143E-06
   61.5589714         8.95076300E-06
   61.6857643         9.49491186E-06
   61.8125572         9.90371882E-06
   61.9393501         1.01675660E-05
   62.0661430         1.02801359E-05
   62.1929359         1.02386430E-05
   62.3197289         1.00440329E-05
   62.4465218         9.70100518E-06
   62.5733147         9.21802894E-06
   62.7001076         8.60709315E-06
   62.8268967         7.88350462E-06
   62.9536896         7.06545188E-06
   63.0804825         6.17355590E-06
   63.2072754         5.23030030E-06
   63.3340683         4.25939015E-06
   63.4608612         3.28508327E-06
   63.5876541         2.33148421E-06
   63.7144470         1.42181125E-06
   63.8412399         5.77724677E-07
   63.9680328        -1.81329341E-07
   64.0948257        -8.38719473E-07
   64.2216187        -1.38110727E-06
   64.3484116        -1.79887252E-06
   64.4752045        -2.08637039E-06
   64.6019974        -2.24210339E-06
   64.7287903        -2.26872908E-06
   64.8555832        -2.17294928E-06
   64.9823761        -1.96526048E-06
   65.1091690        -1.65958704E-06
   65.2359619        -1.27278190E-06
   65.3627548        -8.24067229E-07
   65.4895477        -3.34366121E-07
   65.6163330         1.74394714E-07
   65.7431259         6.80015432E-07
   65.8699188         1.16075489E-06
   65.9967117         1.59603394E-06
   66.1235046         1.96708720E-06
   66.2502975         2.25753092E-06
   66.3770905         2.45385945E-06
   66.5038834         2.54580095E-06
   66.6306763         2.52656696E-06
   66.7574692         2.39296742E-06
   66.8842621         2.14540273E-06
   67.0110550         1.78769506E-06
   67.1378479         1.32684977E-06
   67.2646408         7.72677254E-07
   67.3914337         1.37323966E-07
   67.5182266        -5.65269318E-07
   67.6450195        -1.31989236E-06
   67.7718124        -2.11072779E-06
   67.8986053        -2.92187542E-06
   68.0253983        -3.73795979E-06
   68.1521912        -4.54461542E-06
   68.2789841        -5.32889499E-06
   68.4057770        -6.07967195E-06
   68.5325699        -6.78782408E-06
   68.6593628        -7.44638646E-06
   68.7861557        -8.05062700E-06
   68.9129486        -8.59789543E-06
   69.0397415        -9.08747461E-06
   69.1665344        -9.52035407E-06
   69.2933273        -9.89882210E-06
   69.4201126        -1.02261893E-05
   69.5469055        -1.05062163E-05
   69.6736984        -1.07428705E-05
   69.8004913        -1.09397797E-05
   69.9272842        -1.10999235E-05
   70.0540771        -1.12252892E-05
   70.1808701        -1.13166525E-05
   70.3076630        -1.13733695E-05
   70.4344559        -1.13932911E-05
   70.5612488        -1.13728265E-05
   70.6880417        -1.13069882E-05
   70.8148346        -1.11896506E-05
   70.9416275        -1.10137680E-05
   71.0684204        -1.07717306E-05
   71.1952133        -1.04557821E-05
   71.3220062        -1.00583839E-05
   71.4487991        -9.57272823E-06
   71.5755920        -8.99311635E-06
   71.7023849        -8.31539637E-06
   71.8291779        -7.53733775E-06
   71.9559708        -6.65892867E-06
   72.0827637        -5.68263658E-06
   72.2095566        -4.61357331E-06
   72.3363495        -3.45956141E-06
   72.4631424        -2.23113625E-06
   72.5899353        -9.41413361E-07
   72.7167282         3.94055149E-07
   72.8435211         1.75759078E-06
   72.9703140         3.12971065E-06
   73.0971069         4.48953051E-06
   73.2238922         5.81521863E-06
   73.3506851         7.08446805E-06
   73.4774780         8.27499935E-06
   73.6042709         9.36505330E-06
   73.7310638         1.03338953E-05
   73.8578568         1.11622785E-05
   73.9846497         1.18328689E-05
   74.1114426         1.23306436E-05
   74.2382355         1.26432196E-05
   74.3650284         1.27611293E-05
   74.4918213         1.26780315E-05
   74.6186142         1.23908776E-05
   74.7454071         1.18999833E-05
   74.8722000         1.12090656E-05
   74.9989929         1.03252114E-05
   75.1257858         9.25880431E-06
   75.2525787         8.02338218E-06
   75.3793716         6.63548417E-06
   75.5061646         5.11441158E-06
   75.6329575         3.48200592E-06
   75.7597504         1.76234573E-06
   75.8865433        -1.85076043E-08
   76.0133362        -1.83289876E-06
   76.1401291        -3.65188862E-06
   76.2669220        -5.44557770E-06
   76.3937149        -7.18361798E-06
   76.5205078        -8.83541543E-06
   76.6473007        -1.03707252E-05
   76.7740936        -1.17599693E-05
   76.9008865        -1.29746923E-05
   77.0276718        -1.39880267E-05
   77.1544647        -1.47750688E-05
   77.2812576        -1.53134024E-05
   77.4080505        -1.55834496E-05
   77.5348434        -1.55689140E-05
   77.6616364        -1.52571693E-05
   77.7884293        -1.46395159E-05
   77.9152222        -1.37115630E-05
   78.0420151        -1.24734406E-05
   78.1688080        -1.09298571E-05
   78.2956009        -9.09032860E-06
   78.4223938        -6.96908455E-06
   78.5491867        -4.58488330E-06
   78.6759796        -1.96103588E-06
   78.8027725         8.75105684E-07
   78.9295654         3.89242405E-06
   79.0563583         7.05650018E-06
   79.1831512         1.03302536E-05
   79.3099442         1.36744256E-05
   79.4367371         1.70483800E-05
   79.5635300         2.04107782E-05
   79.6903229         2.37202130E-05
   79.8171158         2.69361171E-05
   79.9439087         3.00192587E-05
   80.0707016         3.29325958E-05
   80.1974945         3.56418132E-05
   80.3242874         3.81158497E-05
   80.4510803         4.03274134E-05
   80.5778732         4.22533558E-05
   80.7046585         4.38749048E-05
   80.8314514         4.51778869E-05
   80.9582443         4.61527306E-05
   81.0850372         4.67945356E-05
   81.2118301         4.71028616E-05
   81.3386230         4.70816121E-05
   81.4654160         4.67386926E-05
   81.5922089         4.60857300E-05
   81.7190018         4.51376945E-05
   81.8457947         4.39124851E-05
   81.9725876         4.24305181E-05
   82.0993805         4.07143125E-05
   82.2261734         3.87880500E-05
   82.3529663         3.66771783E-05
   82.4797592         3.44080399E-05
   82.6065521         3.20075123E-05
   82.7333450         2.95027057E-05
   82.8601379         2.69206066E-05
   82.9869308         2.42878705E-05
   83.1137238         2.16305361E-05
   83.2405167         1.89738057E-05
   83.3673096         1.63418463E-05
   83.4941025         1.37575034E-05
   83.6208954         1.12421903E-05
   83.7476883         8.81565757E-06
   83.8744812         6.49576441E-06
   84.0012741         4.29826287E-06
   84.1280670         2.23670349E-06
   84.2548599         3.22148708E-07
   84.3816528        -1.43697116E-06
   84.5084381        -3.03494130E-06
   84.6352310        -4.46904642E-06
   84.7620239        -5.73952229E-06
   84.8888168        -6.84965926E-06
   85.0156097        -7.80575920E-06
   85.1424026        -8.61709759E-06
   85.2691956        -9.29572707E-06
   85.3959885        -9.85629686E-06
   85.5227814        -1.03156817E-05
   85.6495743        -1.06927637E-05
   85.7763672        -1.10078145E-05
   85.9031601        -1.12821299E-05
   86.0299530        -1.15374951E-05
   86.1567459        -1.17956179E-05
   86.2835388        -1.20774303E-05
   86.4103317        -1.24027029E-05
   86.5371246        -1.27893782E-05
   86.6639175        -1.32530722E-05
   86.7907104        -1.38065943E-05
   86.9175034        -1.44596261E-05
   87.0442963        -1.52184193E-05
   87.1710892        -1.60855761E-05
   87.2978821        -1.70600397E-05
   87.4246750        -1.81371634E-05
   87.5514679        -1.93088235E-05
   87.6782608        -2.05637916E-05
   87.8050537        -2.18880086E-05
   87.9318466        -2.32652437E-05
   88.0586395        -2.46775107E-05
   88.1854324        -2.61058176E-05
   88.3122177        -2.75307666E-05
   88.4390106        -2.89332947E-05
   88.5658035        -3.02952558E-05
   88.6925964        -3.16001242E-05
   88.8193893        -3.28335991E-05
   88.9461823        -3.39840772E-05
   89.0729752        -3.50430164E-05
   89.1997681        -3.60052436E-05
   89.3265610        -3.68690962E-05
   89.4533539        -3.76365133E-05
   89.5801468        -3.83128172E-05
   89.7069397        -3.89065390E-05
   89.8337326        -3.94289746E-05
   89.9605255        -3.98938246E-05
   90.0873184        -4.03165031E-05
   90.2141113        -4.07135376E-05
   90.3409042        -4.11019537E-05
   90.4676971        -4.14983442E-05
   90.5944901        -4.19184289E-05
   90.7212830        -4.23761921E-05
   90.8480759        -4.28832573E-05
   90.9748688        -4.34485046E-05
   91.1016617        -4.40774456E-05
   91.2284546        -4.47720995E-05
   91.3552475        -4.55306326E-05
   91.4820404        -4.63475335E-05
   91.6088333        -4.72135071E-05
   91.7356262        -4.81158422E-05
   91.8624191        -4.90388884E-05
   91.9892120        -4.99642520E-05
   92.1159973        -5.08717385E-05
   92.2427902        -5.17397166E-05
   92.3695831        -5.25461255E-05
   92.4963760        -5.32689373E-05
   92.6231689        -5.38871391E-05
   92.7499619        -5.43812384E-05
   92.8767548        -5.47339478E-05
   93.0035477        -5.49308534E-05
   93.1303406        -5.49606775E-05
   93.2571335        -5.48157441E-05
   93.3839264        -5.44921204E-05
   93.5107193        -5.39895955E-05
   93.6375122        -5.33117709E-05
   93.7643051        -5.24656025E-05
   93.8910980        -5.14612875E-05
   94.0178909        -5.03117262E-05
   94.1446838        -4.90320235E-05
   94.2714767        -4.76388777E-05
   94.3982697        -4.61500349E-05
   94.5250626        -4.45835685E-05
   94.6518555        -4.29574466E-05
   94.7786484        -4.12887530E-05
   94.9054413        -3.95933857E-05
   95.0322342        -3.78854311E-05
   95.1590271        -3.61770217E-05
   95.2858200        -3.44779983E-05
   95.4126129        -3.27958478E-05
   95.5394058        -3.11355579E-05
   95.6661987        -2.94998481E-05
   95.7929916        -2.78892603E-05
   95.9197769        -2.63023085E-05
   96.0465698        -2.47358457E-05
   96.1733627        -2.31853210E-05
   96.3001556        -2.16451554E-05
   96.4269485        -2.01089788E-05
   96.5537415        -1.85700392E-05
   96.6805344        -1.70214280E-05
   96.8073273        -1.54563222E-05
   96.9341202        -1.38682190E-05
   97.0609131        -1.22510319E-05
   97.1877060        -1.05992094E-05
   97.3144989        -8.90778392E-06
   97.4412918        -7.17238390E-06
   97.5680847        -5.38920403E-06
   97.6948776        -3.55498446E-06
   97.8216705        -1.66697987E-06
   97.9484634         2.77033678E-07
   98.0752563         2.27877581E-06