  -4.50000000         0.00000000    
  -4.37320757         0.00000000    
  -4.24641466         0.00000000    
  -4.11962223         0.00000000    
  -3.99282932         0.00000000    
  -3.86603665         0.00000000    
  -3.73924398         0.00000000    
  -3.61245155         6.17940218E-32
  -3.48565888         1.80416095E-30
  -3.35886621        -1.07178731E-29
  -3.23207355        -1.33377979E-28
  -3.10528088        -1.02022181E-27
  -2.97848821        -5.23569795E-27
  -2.85169554        -1.95766573E-26
  -2.72490287        -5.53463085E-26
  -2.59811020        -1.16248762E-25
  -2.47131753        -1.55101073E-25
  -2.34452486         1.52413967E-26
  -2.21773219         8.30190511E-25
  -2.09093952         2.98077739E-24
  -1.96414697         7.09006015E-24
  -1.83735430         1.28341422E-23
  -1.71056163         1.76142464E-23
  -1.58376896         1.56808430E-23
  -1.45697629        -3.53768420E-25
  -1.33018374        -3.32646993E-23
  -1.20339108        -6.95187775E-23
  -1.07659841        -6.63468688E-23
 -0.949805737         5.05426842E-23
 -0.823013067         3.60272144E-22
 -0.696220458         8.75131542E-22
 -0.569427788         1.42761892E-21
 -0.442635119         1.55989058E-21
 -0.315842479         5.09239325E-22
 -0.189049825        -2.58561190E-21
  -6.22571707E-02    -8.16180484E-21
   6.45354837E-02    -1.54227050E-20
  0.191328138        -2.14914157E-20
  0.318120778        -2.10297084E-20
  0.444913447        -6.97501472E-21
  0.571706116         2.70719429E-20
  0.698498726         8.27937354E-20
  0.825291395         1.52319584E-19
  0.952084064         2.14527676E-19
   1.07887673         2.35128131E-19
   1.20566940         1.73000612E-19
   1.33246195        -6.22783273E-21
   1.45925462        -3.11203596E-19
   1.58604729        -7.05823394E-19
   1.71283996        -1.09844271E-18
   1.83963263        -1.34824608E-18
   1.96642530        -1.29467880E-18
   2.09321785        -8.08775068E-19
   2.22001052         1.44599275E-19
   2.34680319         1.45393371E-18
   2.47359586         2.84261010E-18
   2.60038853         3.90535335E-18
   2.72718120         4.20505040E-18
   2.85397387         3.41176082E-18
   2.98076653         1.44062799E-18
   3.10755920        -1.47051992E-18
   3.23435187        -4.79879361E-18
   3.36114454        -7.91287509E-18
   3.48793697        -1.03572145E-17
   3.61472964        -1.21473309E-17
   3.74152231        -1.39298654E-17
   3.86831498        -1.68546305E-17
   3.99510765        -2.20648079E-17
   4.12190056        -2.98384098E-17
   4.24869299        -3.85854477E-17
   4.37548542        -4.40693772E-17
   4.50227833        -3.93095980E-17
   4.62907076        -1.55698271E-17
   4.75586367         3.53914751E-17
   4.88265610         1.18020158E-16
   5.00944901         2.29291448E-16
   5.13624144         3.55748306E-16
   5.26303434         4.72532417E-16
   5.38982677         5.45534693E-16
   5.51661968         5.37228741E-16
   5.64341211         4.15839655E-16
   5.77020502         1.66420256E-16
   5.89699745        -1.98570371E-16
   6.02379036        -6.32153976E-16
   6.15058279        -1.05205770E-15
   6.27737522        -1.34828523E-15
   6.40416813        -1.39948711E-15
   6.53096056        -1.09662635E-15
   6.65775347        -3.70482894E-16
   6.78454590         7.81951224E-16
   6.91133881         2.27775079E-15
   7.03813124         3.94015883E-15
   7.16492414         5.50619442E-15
   7.29171658         6.65117841E-15
   7.41850948         7.02896358E-15
   7.54530191         6.32405175E-15
   7.67209482         4.30965154E-15
   7.79888725         9.04304551E-16
   7.92567968        -3.78087556E-15
   8.05247211        -9.41214710E-15
   8.17926502        -1.54270873E-14
   8.30605793        -2.10578015E-14
   8.43285084        -2.53864634E-14
   8.55964279        -2.74332457E-14
   8.68643570        -2.62733628E-14
   8.81322861        -2.11754374E-14
   8.94002151        -1.17493439E-14
   9.06681347         1.91297732E-15
   9.19360638         1.91235696E-14
   9.32039928         3.85330839E-14
   9.44719219         5.81352864E-14
   9.57398415         7.53592677E-14
   9.70077705         8.72605956E-14
   9.82756996         9.08127740E-14
   9.95436192         8.32877739E-14
   10.0811548         6.27010583E-14
   10.2079477         2.82808394E-14
   10.3347406        -1.90905878E-14
   10.4615326        -7.65263368E-14
   10.5883255        -1.38942582E-13
   10.7151184        -1.99090012E-13
   10.8419113        -2.47863362E-13
   10.9687033        -2.74925292E-13
   11.0954962        -2.69650865E-13
   11.2222891        -2.22364634E-13
   11.3490820        -1.25802540E-13
   11.4758739         2.33128336E-14
   11.6026669         2.22728140E-13
   11.7294598         4.63325233E-13
   11.8562517         7.28188180E-13
   11.9830446         9.92267900E-13
   12.1098375         1.22281666E-12
   12.2366304         1.38073298E-12
   12.3634224         1.42290097E-12
   12.4902153         1.30552134E-12
   12.6170082         9.88361845E-13
   12.7438011         4.39736274E-13
   12.8705931        -3.58068122E-13
   12.9973860        -1.40331149E-12
   13.1241789        -2.66973921E-12
   13.2509708        -4.10249308E-12
   13.3777637        -5.61557875E-12
   13.5045567        -7.09146500E-12
   13.6313496        -8.38335824E-12
   13.7581415        -9.32054434E-12
   13.8849344        -9.71707610E-12
   14.0117273        -9.38375766E-12
   14.1385202        -8.14323348E-12
   14.2653122        -5.84751475E-12
   14.3921051        -2.39706085E-12
   14.5188980         2.23983570E-12
   14.6456909         8.00894854E-12
   14.7724829         1.47549733E-11
   14.8992758         2.22112589E-11
   15.0260687         2.99961826E-11
   15.1528606         3.76177908E-11
   15.2796535         4.44879723E-11
   15.4064465         4.99467447E-11
   15.5332394         5.32967906E-11
   15.6600313         5.38472392E-11
   15.7868242         5.09650308E-11
   15.9136171         4.41312091E-11
   16.0404091         3.29986871E-11
   16.1672020         1.74473526E-11
   16.2939949        -2.36805063E-12
   16.4207878        -2.59818070E-11
   16.5475807        -5.25974958E-11
   16.6743736        -8.10883097E-11
   16.8011646        -1.10020375E-10
   16.9279575        -1.37700518E-10
   17.0547504        -1.62248659E-10
   17.1815434        -1.81692522E-10
   17.3083363        -1.94081806E-10
   17.4351292        -1.97615563E-10
   17.5619221        -1.90776311E-10
   17.6887150        -1.72462739E-10
   17.8155060        -1.42111406E-10
   17.9422989        -9.97986624E-11
   18.0690918        -4.63137133E-11
   18.1958847         1.68056315E-11
   18.3226776         8.72799055E-11
   18.4494705         1.62142841E-10
   18.5762634         2.37844522E-10
   18.7030544         3.10402148E-10
   18.8298473         3.75592196E-10
   18.9566402         4.29177360E-10
   19.0834332         4.67155259E-10
   19.2102261         4.86016505E-10
   19.3370190         4.82996310E-10
   19.4638119         4.56302690E-10
   19.5906048         4.05305428E-10
   19.7173958         3.30669825E-10
   19.8441887         2.34423980E-10
   19.9709816         1.19947663E-10
   20.0977745        -8.12027355E-12
   20.2245674        -1.44058029E-10
   20.3513603        -2.81315637E-10
   20.4781532        -4.12837708E-10
   20.6049442        -5.31440558E-10
   20.7317371        -6.30222985E-10
   20.8585300        -7.02988667E-10
   20.9853230        -7.44654671E-10
   21.1121159        -7.51618823E-10
   21.2389088        -7.22062798E-10
   21.3657017        -6.56164068E-10
   21.4924946        -5.56198698E-10
   21.6192856        -4.26522984E-10
   21.7460785        -2.73424200E-10
   21.8728714        -1.04840990E-10
   21.9996643         7.00349570E-11
   22.1264572         2.41261289E-10
   22.2532501         3.98723804E-10
   22.3800430         5.32761169E-10
   22.5068340         6.34796327E-10
   22.6336269         6.97936320E-10
   22.7604198         7.17495841E-10
   22.8872128         6.91408875E-10
   23.0140057         6.20488549E-10
   23.1407986         5.08514841E-10
   23.2675915         3.62131020E-10
   23.3943844         1.90530286E-10
   23.5211754         4.96588144E-12
   23.6479683        -1.81919257E-10
   23.7747612        -3.56895374E-10
   23.9015541        -5.07038411E-10
   24.0283470        -6.20656748E-10
   24.1551399        -6.88188173E-10
   24.2819328        -7.03003933E-10
   24.4087238        -6.62053301E-10
   24.5355167        -5.66288738E-10
   24.6623096        -4.20834062E-10
   24.7891026        -2.34838760E-10
   24.9158955        -2.10480713E-11
   25.0426884         2.04963019E-10
   25.1694813         4.25808666E-10
   25.2962742         6.23553431E-10
   25.4230652         7.81118503E-10
   25.5498581         8.83745355E-10
   25.6766510         9.20446885E-10
   25.8034439         8.85279794E-10
   25.9302368         7.78388964E-10
   26.0570297         6.06663886E-10
   26.1838226         3.83976517E-10
   26.3106136         1.30885566E-10
   26.4374065        -1.26190086E-10
   26.5641994        -3.56371571E-10
   26.6909924        -5.26205413E-10
   26.8177853        -6.02026706E-10
   26.9445782        -5.52625556E-10
   27.0713711        -3.52112034E-10
   27.1981640         1.71830241E-11
   27.3249550         5.62034586E-10
   27.4517479         1.27597144E-09
   27.5785408         2.13756768E-09
   27.7053337         3.10944182E-09
   27.8321266         4.13824797E-09
   27.9589195         5.15566301E-09
   28.0857124         6.08051476E-09
   28.2125034         6.82206203E-09
   28.3392963         7.28428118E-09
   28.4660892         7.37114236E-09
   28.5928822         6.99258917E-09
   28.7196751         6.07100636E-09
   28.8464680         4.54781413E-09
   28.9732609         2.38982856E-09
   29.1000538        -4.04961148E-10
   29.2268448        -3.80265774E-09
   29.3536377        -7.73013920E-09
   29.4804306        -1.20734480E-08
   29.6072235        -1.66783352E-08
   29.7340164        -2.13528946E-08
   29.8608093        -2.58725841E-08
   29.9876022        -2.99876497E-08
   30.1143932        -3.34325634E-08
   30.2411861        -3.59374965E-08
   30.3679790        -3.72412181E-08
   30.4947720        -3.71049715E-08
   30.6215649        -3.53267531E-08
   30.7483578        -3.17552562E-08
   30.8751507        -2.63028035E-08
   31.0019417        -1.89565572E-08
   31.1287346        -9.78722170E-09
   31.2555275         1.04532605E-09
   31.3823204         1.32899469E-08
   31.5091133         2.66062283E-08
   31.6359062         4.05706118E-08
   31.7626991         5.46869288E-08
   31.8894920         6.84008157E-08
   32.0162849         8.11182232E-08
   32.1430779         9.22266352E-08
   32.2698708         1.01119262E-07
   32.3966637         1.07220409E-07
   32.5234528         1.10011612E-07
   32.6502457         1.09057019E-07
   32.7770386         1.04027350E-07
   32.9038315         9.47207468E-08
   33.0306244         8.10800529E-08
   33.1574173         6.32051211E-08
   33.2842102         4.13596624E-08
   33.4110031         1.59720805E-08
   33.5377960        -1.23702870E-08
   33.6645889        -4.29332125E-08
   33.7913818        -7.48539222E-08
   33.9181747        -1.07165171E-07
   34.0449677        -1.38824404E-07
   34.1717606        -1.68746567E-07
   34.2985535        -1.95840443E-07
   34.4253426        -2.19045688E-07
   34.5521355        -2.37370571E-07
   34.6789284        -2.49928064E-07
   34.8057213        -2.55969439E-07
   34.9325142        -2.54913573E-07
   35.0593071        -2.46371428E-07
   35.1861000        -2.30163906E-07
   35.3128929        -2.06333326E-07
   35.4396858        -1.75147647E-07
   35.5664787        -1.37097160E-07
   35.6932716        -9.28839796E-08
   35.8200645        -4.34050271E-08
   35.9468575         1.02711448E-08
   36.0736504         6.69324578E-08
   36.2004433         1.25255596E-07
   36.3272324         1.83840825E-07
   36.4540253         2.41248557E-07
   36.5808182         2.96035836E-07
   36.7076111         3.46792035E-07
   36.8344040         3.92172666E-07
   36.9611969         4.30929845E-07
   37.0879898         4.61939436E-07
   37.2147827         4.84224074E-07
   37.3415756         4.96971552E-07
   37.4683685         4.99548548E-07
   37.5951614         4.91511344E-07
   37.7219543         4.72610878E-07
   37.8487473         4.42795510E-07
   37.9755402         4.02210532E-07
   38.1023293         3.51195297E-07
   38.2291222         2.90279075E-07
   38.3559151         2.20174584E-07
   38.4827080         1.41771963E-07
   38.6095009         5.61310571E-08
   38.7362938        -3.55261989E-08
   38.8630867        -1.31824578E-07
   38.9898796        -2.31244869E-07
   39.1166725        -3.32134817E-07
   39.2434654        -4.32722004E-07
   39.3702583        -5.31128876E-07
   39.4970512        -6.25391408E-07
   39.6238441        -7.13481029E-07
   39.7506371        -7.93330628E-07
   39.8774300        -8.62865022E-07
   40.0042191        -9.20035291E-07
   40.1310120        -9.62858280E-07
   40.2578049        -9.89457703E-07
   40.3845978        -9.98109158E-07
   40.5113907        -9.87285262E-07
   40.6381836        -9.55701239E-07
   40.7649765        -9.02357840E-07
   40.8917694        -8.26580163E-07
   41.0185623        -7.28050622E-07
   41.1453552        -6.06833225E-07
   41.2721481        -4.63389625E-07
   41.3989410        -2.98580630E-07
   41.5257339        -1.13657968E-07
   41.6525269         8.97587000E-08
   41.7793198         3.09719127E-07
   41.9061089         5.43991689E-07
   42.0329018         7.90125853E-07
   42.1596947         1.04552475E-06
   42.2864876         1.30752744E-06
   42.4132805         1.57349507E-06
   42.5400734         1.84090129E-06
   42.6668663         2.10741860E-06
   42.7936592         2.37100517E-06
   42.9204521         2.62997742E-06
   43.0472450         2.88307569E-06
   43.1740379         3.12951192E-06
   43.3008308         3.36900189E-06
   43.4276237         3.60177251E-06
   43.5544167         3.82855706E-06
   43.6812096         4.05056016E-06
   43.8079987         4.26941278E-06
   43.9347916         4.48709034E-06
   44.0615845         4.70583518E-06
   44.1883774         4.92804793E-06
   44.3151703         5.15617648E-06
   44.4419632         5.39259599E-06
   44.5687561         5.63949106E-06
   44.6955490         5.89873343E-06
   44.8223419         6.17177784E-06
   44.9491348         6.45956197E-06
   45.0759277         6.76242644E-06
   45.2027206         7.08005882E-06
   45.3295135         7.41145368E-06
   45.4563065         7.75489934E-06
   45.5830994         8.10800339E-06
   45.7098885         8.46772309E-06
   45.8366814         8.83043504E-06
   45.9634743         9.19202921E-06
   46.0902672         9.54801453E-06
   46.2170601         9.89364344E-06
   46.3438530         1.02240510E-05
   46.4706459         1.05344025E-05
   46.5974388         1.08200320E-05
   46.7242317         1.10765832E-05
   46.8510246         1.13001588E-05
   46.9778175         1.14874119E-05
   47.1046104         1.16356778E-05
   47.2314034         1.17430209E-05
   47.3581963         1.18083262E-05
   47.4849892         1.18313101E-05
   47.6117783         1.18125108E-05
   47.7385712         1.17533154E-05
   47.8653641         1.16558904E-05
   47.9921570         1.15230760E-05
   48.1189499         1.13584119E-05
   48.2457428         1.11659174E-05
   48.3725357         1.09500652E-05
   48.4993286         1.07156475E-05
   48.6261215         1.04676474E-05
   48.7529144         1.02111189E-05
   48.8797073         9.95110713E-06
   49.0065002         9.69250414E-06
   49.1332932         9.43999294E-06
   49.2600861         9.19796912E-06
   49.3868790         8.97045720E-06
   49.5136681         8.76107515E-06
   49.6404610         8.57301984E-06
   49.7672539         8.40902885E-06
   49.8940468         8.27138228E-06
   50.0208397         8.16191823E-06
   50.1476326         8.08201185E-06
   50.2744255         8.03264174E-06
   50.4012184         8.01438819E-06
   50.5280113         8.02745853E-06
   50.6548042         8.07171091E-06
   50.7815971         8.14666964E-06
   50.9083900         8.25155621E-06
   51.0351830         8.38526012E-06
   51.1619759         8.54637528E-06
   51.2887688         8.73317458E-06
   51.4155579         8.94362893E-06
   51.5423508         9.17533544E-06
   51.6691437         9.42557290E-06
   51.7959366         9.69124540E-06
   51.9227295         9.96891595E-06
   52.0495224         1.02547401E-05
   52.1763153         1.05445415E-05
   52.3031082         1.08337745E-05
   52.4299011         1.11176041E-05
   52.5566940         1.13909337E-05
   52.6834869         1.16484744E-05
   52.8102798         1.18848002E-05
   52.9370728         1.20944869E-05
   53.0638657         1.22722058E-05
   53.1906586         1.24128292E-05
   53.3174477         1.25115785E-05
   53.4442406         1.25641536E-05
   53.5710335         1.25668657E-05
   53.6978264         1.25167726E-05
   53.8246193         1.24118087E-05
   53.9514122         1.22508691E-05
   54.0782051         1.20339237E-05
   54.2049980         1.17620511E-05
   54.3317909         1.14375553E-05
   54.4585838         1.10638557E-05
   54.5853767         1.06456027E-05
   54.7121696         1.01885198E-05
   54.8389626         9.69938537E-06
   54.9657555         9.18591286E-06
   55.0925484         8.65661514E-06
   55.2193375         8.12063172E-06
   55.3461304         7.58756369E-06
   55.4729233         7.06726996E-06
   55.5997162         6.56970815E-06
   55.7265091         6.10464849E-06
   55.8533020         5.68152473E-06
   55.9800949         5.30923671E-06
   56.1068878         4.99594125E-06
   56.2336807         4.74888793E-06
   56.3604736         4.57428223E-06
   56.4872665         4.47715684E-06
   56.6140594         4.46127115E-06
   56.7408524         4.52905579E-06
   56.8676453         4.68155713E-06
   56.9944382         4.91844730E-06
   57.1212273         5.23802055E-06
   57.2480202         5.63724279E-06
   57.3748131         6.11181304E-06
   57.5016060         6.65624611E-06
   57.6283989         7.26401595E-06
   57.7551918         7.92758783E-06
   57.8819847         8.63862988E-06
   58.0087776         9.38809171E-06
   58.1355705         1.01663600E-05
   58.2623634         1.09633911E-05
   58.3891563         1.17688878E-05
   58.5159492         1.25723609E-05
   58.6427422         1.33633584E-05
   58.7695351         1.41315040E-05
   58.8963280         1.48667214E-05
   59.0231171         1.55592807E-05
   59.1499100         1.61999524E-05
   59.2767029         1.67801063E-05
   59.4034958         1.72918208E-05
   59.5302887         1.77280144E-05
   59.6570816         1.80824991E-05
   59.7838745         1.83501124E-05
   59.9106674         1.85267581E-05
   60.0374603         1.86095440E-05
   60.1642532         1.85967692E-05
   60.2910461         1.84880373E-05
   60.4178391         1.82842286E-05
   60.5446320         1.79875624E-05
   60.6714249         1.76016001E-05
   60.7982178         1.71311458E-05
   60.9250069         1.65822439E-05
   61.0517998         1.59621286E-05
   61.1785927         1.52790471E-05
   61.3053856         1.45422364E-05
   61.4321785         1.37616644E-05
   61.5589714         1.29479540E-05
   61.6857643         1.21121657E-05
   61.8125572         1.12655935E-05
   61.9393501         1.04195860E-05
   62.0661430         9.58535838E-06
   62.1929359         8.77375169E-06
   62.3197289         7.99508416E-06
   62.4465218         7.25893369E-06
   62.5733147         6.57408100E-06
   62.7001076         5.94823359E-06
   62.8268967         5.38802760E-06
   62.9536896         4.89888453E-06
   63.0804825         4.48502260E-06
   63.2072754         4.14932356E-06
   63.3340683         3.89351362E-06
   63.4608612         3.71804822E-06
   63.5876541         3.62224887E-06
   63.7144470         3.60438230E-06
   63.8412399         3.66175709E-06
   63.9680328         3.79088010E-06
   64.0948257         3.98752991E-06
   64.2216187         4.24694554E-06
   64.3484116         4.56393218E-06
   64.4752045         4.93301877E-06
   64.6019974         5.34851279E-06
   64.7287903         5.80472579E-06
   64.8555832         6.29592751E-06
   64.9823761         6.81650863E-06
   65.1091690         7.36100719E-06
   65.2359619         7.92411083E-06
   65.3627548         8.50072229E-06
   65.4895477         9.08592301E-06
   65.6163330         9.67496089E-06
   65.7431259         1.02632575E-05
   65.8699188         1.08464028E-05
   65.9967117         1.14200766E-05
   66.1235046         1.19800779E-05
   66.2502975         1.25223232E-05
   66.3770905         1.30428461E-05
   66.5038834         1.35378377E-05
   66.6306763         1.40036891E-05
   66.7574692         1.44370697E-05
   66.8842621         1.48349509E-05
   67.0110550         1.51947588E-05
   67.1378479         1.55144553E-05
   67.2646408         1.57926024E-05
   67.3914337         1.60284744E-05
   67.5182266         1.62222332E-05
   67.6450195         1.63748464E-05
   67.7718124         1.64882131E-05
   67.8986053         1.65652036E-05
   68.0253983         1.66096142E-05
   68.1521912         1.66261398E-05
   68.2789841         1.66202699E-05
   68.4057770         1.65981091E-05
   68.5325699         1.65664096E-05
   68.6593628         1.65321180E-05
   68.7861557         1.65024012E-05
   68.9129486         1.64842677E-05
   69.0397415         1.64844278E-05
   69.1665344         1.65090205E-05
   69.2933273         1.65633501E-05
   69.4201126         1.66517930E-05
   69.5469055         1.67775743E-05
   69.6736984         1.69425839E-05
   69.8004913         1.71473566E-05
   69.9272842         1.73910776E-05
   70.0540771         1.76715002E-05
   70.1808701         1.79850813E-05
   70.3076630         1.83271004E-05
   70.4344559         1.86918569E-05
   70.5612488         1.90728078E-05
   70.6880417         1.94628810E-05
   70.8148346         1.98547314E-05
   70.9416275         2.02410338E-05
   71.0684204         2.06146433E-05
   71.1952133         2.09690515E-05
   71.3220062         2.12984887E-05
   71.4487991         2.15982000E-05
   71.5755920         2.18645237E-05
   71.7023849         2.20950733E-05
   71.8291779         2.22887975E-05
   71.9559708         2.24458745E-05
   72.0827637         2.25676740E-05
   72.2095566         2.26566735E-05
   72.3363495         2.27161872E-05
   72.4631424         2.27501823E-05
   72.5899353         2.27629189E-05
   72.7167282         2.27587316E-05
   72.8435211         2.27417095E-05
   72.9703140         2.27153432E-05
   73.0971069         2.26822576E-05
   73.2238922         2.26439588E-05
   73.3506851         2.26007087E-05
   73.4774780         2.25512722E-05
   73.6042709         2.24928899E-05
   73.7310638         2.24213491E-05
   73.8578568         2.23309962E-05
   73.9846497         2.22148974E-05
   74.1114426         2.20651364E-05
   74.2382355         2.18731147E-05
   74.3650284         2.16297922E-05
   74.4918213         2.13262301E-05
   74.6186142         2.09539612E-05
   74.7454071         2.05054075E-05
   74.8722000         1.99742844E-05
   74.9989929         1.93561336E-05
   75.1257858         1.86484504E-05
   75.2525787         1.78511928E-05
   75.3793716         1.69668710E-05
   75.5061646         1.60006457E-05
   75.6329575         1.49605185E-05
   75.7597504         1.38571568E-05
   75.8865433         1.27036828E-05
   76.0133362         1.15155090E-05
   76.1401291         1.03098673E-05
   76.2669220         9.10559902E-06
   76.3937149         7.92233095E-06
   76.5205078         6.78017113E-06
   76.6473007         5.69908480E-06
   76.7740936         4.69823317E-06
   76.9008865         3.79545986E-06
   77.0276718         3.00673582E-06
   77.1544647         2.34564186E-06
   77.2812576         1.82297481E-06
   77.4080505         1.44634487E-06
   77.5348434         1.21995663E-06
   77.6616364         1.14453246E-06
   77.7884293         1.21707194E-06
   77.9152222         1.43121292E-06
   78.0420151         1.77720449E-06
   78.1688080         2.24234395E-06
   78.2956009         2.81136295E-06
   78.4223938         3.46688580E-06
   78.5491867         4.19002208E-06
   78.6759796         4.96107987E-06
   78.8027725         5.76014963E-06
   78.9295654         6.56782140E-06
   79.0563583         7.36588845E-06
   79.1831512         8.13793213E-06
   79.3099442         8.86994803E-06
   79.4367371         9.55086398E-06
   79.5635300         1.01729311E-05
   79.6903229         1.07320529E-05
   79.8171158         1.12279658E-05
   79.9439087         1.16640758E-05
   80.0707016         1.20477262E-05
   80.1974945         1.23896589E-05
   80.3242874         1.27037538E-05
   80.4510803         1.30064936E-05
   80.5778732         1.33164640E-05
   80.7046585         1.36535791E-05
   80.8314514         1.40383336E-05
   80.9582443         1.44910664E-05
   81.0850372         1.50312098E-05
   81.2118301         1.56763290E-05
   81.3386230         1.64416269E-05
   81.4654160         1.73391691E-05
   81.5922089         1.83773009E-05
   81.7190018         1.95602679E-05
   81.8457947         2.08879119E-05
   81.9725876         2.23553943E-05
   82.0993805         2.39533638E-05
   82.2261734         2.56679650E-05
   82.3529663         2.74811573E-05
   82.4797592         2.93711546E-05
   82.6065521         3.13129894E-05
   82.7333450         3.32791715E-05
   82.8601379         3.52404240E-05
   82.9869308         3.71664792E-05
   83.1137238         3.90269633E-05
   83.2405167         4.07921652E-05
   83.3673096         4.24339305E-05
   83.4941025         4.39263458E-05
   83.6208954         4.52465247E-05
   83.7476883         4.63751348E-05
   83.8744812         4.72969878E-05
   84.0012741         4.80013477E-05
   84.1280670         4.84821940E-05
   84.2548599         4.87383695E-05
   84.3816528         4.87735415E-05
   84.5084381         4.85960954E-05
   84.6352310         4.82188225E-05
   84.7620239         4.76585956E-05
   84.8888168         4.69358092E-05
   85.0156097         4.60739757E-05
   85.1424026         4.50989028E-05
   85.2691956         4.40382064E-05
   85.3959885         4.29204883E-05
   85.5227814         4.17746414E-05
   85.6495743         4.06292093E-05
   85.7763672         3.95116367E-05
   85.9031601         3.84476734E-05
   86.0299530         3.74608171E-05
   86.1567459         3.65718188E-05
   86.2835388         3.57982863E-05
   86.4103317         3.51543822E-05
   86.5371246         3.46506386E-05
   86.6639175         3.42938511E-05
   86.7907104         3.40870974E-05
   86.9175034         3.40298466E-05
   87.0442963         3.41181840E-05
   87.1710892         3.43450738E-05
   87.2978821         3.47007517E-05
   87.4246750         3.51731214E-05
   87.5514679         3.57482313E-05
   87.6782608         3.64107473E-05
   87.8050537         3.71444476E-05
   87.9318466         3.79326739E-05
   88.0586395         3.87588007E-05
   88.1854324         3.96066098E-05
   88.3122177         4.04606508E-05
   88.4390106         4.13064990E-05
   88.5658035         4.21309451E-05
   88.6925964         4.29221545E-05
   88.8193893         4.36696646E-05
   88.9461823         4.43643694E-05
   89.0729752         4.49984473E-05
   89.1997681         4.55651716E-05
   89.3265610         4.60587034E-05
   89.4533539         4.64739278E-05
   89.5801468         4.68061444E-05
   89.7069397         4.70508567E-05
   89.8337326         4.72035499E-05
   89.9605255         4.72594984E-05
   90.0873184         4.72135944E-05
   90.2141113         4.70602536E-05
   90.3409042         4.67934078E-05
   90.4676971         4.64064397E-05
   90.5944901         4.58923387E-05
   90.7212830         4.52437889E-05
   90.8480759         4.44533653E-05
   90.9748688         4.35137990E-05
   91.1016617         4.24181671E-05
   91.2284546         4.11602632E-05
   91.3552475         3.97348012E-05
   91.4820404         3.81377686E-05
   91.6088333         3.63666259E-05
   91.7356262         3.44205655E-05
   91.8624191         3.23006752E-05
   91.9892120         3.00100892E-05
   92.1159973         2.75540333E-05
   92.2427902         2.49398254E-05
   92.3695831         2.21767896E-05
   92.4963760         1.92761199E-05
   92.6231689         1.62507549E-05
   92.7499619         1.31149900E-05
   92.8767548         9.88427746E-06
   93.0035477         6.57495548E-06
   93.1303406         3.20373783E-06
   93.2571335        -2.12436504E-07
   93.3839264        -3.65679966E-06
   93.5107193        -7.11303528E-06
   93.6375122        -1.05654581E-05
   93.7643051        -1.39992790E-05
   93.8910980        -1.74005909E-05
   94.0178909        -2.07565281E-05
   94.1446838        -2.40550780E-05
   94.2714767        -2.72850993E-05
   94.3982697        -3.04360619E-05
   94.5250626        -3.34978577E-05
   94.6518555        -3.64604966E-05
   94.7786484        -3.93139380E-05
   94.9054413        -4.20476536E-05
   95.0322342        -4.46505255E-05
   95.1590271        -4.71105304E-05
   95.2858200        -4.94146589E-05
   95.4126129        -5.15487736E-05
   95.5394058        -5.34976425E-05
   95.6661987        -5.52451056E-05
   95.7929916        -5.67742536E-05
   95.9197769        -5.80676897E-05
   96.0465698        -5.91080716E-05
   96.1733627        -5.98784973E-05
   96.3001556        -6.03631561E-05
   96.4269485        -6.05478454E-05
   96.5537415        -6.04208035E-05
   96.6805344        -5.99730411E-05
   96.8073273        -5.91992066E-05
   96.9341202        -5.80980050E-05
   97.0609131        -5.66726812E-05
   97.1877060        -5.49313409E-05
   97.3144989        -5.28872006E-05
   97.4412918        -5.05586431E-05
   97.5680847        -4.79691698E-05
   97.6948776        -4.51471788E-05
   97.8216705        -4.21255500E-05
   97.9484634        -3.89411434E-05
   98.0752563        -3.56341625E-05