  -4.50000000         0.00000000    
  -4.37320757         0.00000000    
  -4.24641466         0.00000000    
  -4.11962223         0.00000000    
  -3.99282932         0.00000000    
  -3.86603665         0.00000000    
  -3.73924398         0.00000000    
  -3.61245155         0.00000000    
  -3.48565888         0.00000000    
  -3.35886621         0.00000000    
  -3.23207355         0.00000000    
  -3.10528088         0.00000000    
  -2.97848821         0.00000000    
  -2.85169554         0.00000000    
  -2.72490287         0.00000000    
  -2.59811020         0.00000000    
  -2.47131753         0.00000000    
  -2.34452486         0.00000000    
  -2.21773219         0.00000000    
  -2.09093952         0.00000000    
  -1.96414697         0.00000000    
  -1.83735430         0.00000000    
  -1.71056163         0.00000000    
  -1.58376896         0.00000000    
  -1.45697629         0.00000000    
  -1.33018374         0.00000000    
  -1.20339108         0.00000000    
  -1.07659841         0.00000000    
 -0.949805737         0.00000000    
 -0.823013067         0.00000000    
 -0.696220458         0.00000000    
 -0.569427788         0.00000000    
 -0.442635119         0.00000000    
 -0.315842479         0.00000000    
 -0.189049825         0.00000000    
  -6.22571707E-02     0.00000000    
   6.45354837E-02     0.00000000    
  0.191328138         0.00000000    
  0.318120778         0.00000000    
  0.444913447         0.00000000    
  0.571706116         0.00000000    
  0.698498726         0.00000000    
  0.825291395         0.00000000    
  0.952084064         0.00000000    
   1.07887673         0.00000000    
   1.20566940         0.00000000    
   1.33246195         0.00000000    
   1.45925462         0.00000000    
   1.58604729         0.00000000    
   1.71283996         0.00000000    
   1.83963263         0.00000000    
   1.96642530         0.00000000    
   2.09321785         0.00000000    
   2.22001052         0.00000000    
   2.34680319         0.00000000    
   2.47359586         0.00000000    
   2.60038853         0.00000000    
   2.72718120         0.00000000    
   2.85397387         0.00000000    
   2.98076653         0.00000000    
   3.10755920         0.00000000    
   3.23435187         0.00000000    
   3.36114454         0.00000000    
   3.48793697         0.00000000    
   3.61472964         0.00000000    
   3.74152231         0.00000000    
   3.86831498         0.00000000    
   3.99510765         0.00000000    
   4.12190056         0.00000000    
   4.24869299         0.00000000    
   4.37548542         0.00000000    
   4.50227833         0.00000000    
   4.62907076         0.00000000    
   4.75586367         0.00000000    
   4.88265610         0.00000000    
   5.00944901         0.00000000    
   5.13624144         0.00000000    
   5.26303434         0.00000000    
   5.38982677         0.00000000    
   5.51661968         0.00000000    
   5.64341211         0.00000000    
   5.77020502         0.00000000    
   5.89699745         0.00000000    
   6.02379036         0.00000000    
   6.15058279         0.00000000    
   6.27737522         0.00000000    
   6.40416813         0.00000000    
   6.53096056         0.00000000    
   6.65775347         0.00000000    
   6.78454590         0.00000000    
   6.91133881         0.00000000    
   7.03813124         0.00000000    
   7.16492414         0.00000000    
   7.29171658         0.00000000    
   7.41850948         0.00000000    
   7.54530191         0.00000000    
   7.67209482         0.00000000    
   7.79888725         0.00000000    
   7.92567968         0.00000000    
   8.05247211         0.00000000    
   8.17926502         0.00000000    
   8.30605793         0.00000000    
   8.43285084         0.00000000    
   8.55964279         0.00000000    
   8.68643570         0.00000000    
   8.81322861         0.00000000    
   8.94002151         0.00000000    
   9.06681347         0.00000000    
   9.19360638         0.00000000    
   9.32039928         0.00000000    
   9.44719219         0.00000000    
   9.57398415         0.00000000    
   9.70077705         0.00000000    
   9.82756996         0.00000000    
   9.95436192         0.00000000    
   10.0811548         0.00000000    
   10.2079477         0.00000000    
   10.3347406         0.00000000    
   10.4615326         0.00000000    
   10.5883255         0.00000000    
   10.7151184         0.00000000    
   10.8419113         0.00000000    
   10.9687033         0.00000000    
   11.0954962         0.00000000    
   11.2222891         0.00000000    
   11.3490820         0.00000000    
   11.4758739         0.00000000    
   11.6026669         0.00000000    
   11.7294598         0.00000000    
   11.8562517         0.00000000    
   11.9830446         0.00000000    
   12.1098375         0.00000000    
   12.2366304         0.00000000    
   12.3634224         0.00000000    
   12.4902153         0.00000000    
   12.6170082         0.00000000    
   12.7438011         0.00000000    
   12.8705931         0.00000000    
   12.9973860         0.00000000    
   13.1241789         0.00000000    
   13.2509708         0.00000000    
   13.3777637         0.00000000    
   13.5045567         0.00000000    
   13.6313496         0.00000000    
   13.7581415         0.00000000    
   13.8849344         0.00000000    
   14.0117273         0.00000000    
   14.1385202         0.00000000    
   14.2653122         0.00000000    
   14.3921051         0.00000000    
   14.5188980         0.00000000    
   14.6456909         0.00000000    
   14.7724829         0.00000000    
   14.8992758         0.00000000    
   15.0260687         0.00000000    
   15.1528606         0.00000000    
   15.2796535         0.00000000    
   15.4064465         0.00000000    
   15.5332394         0.00000000    
   15.6600313         0.00000000    
   15.7868242         0.00000000    
   15.9136171         0.00000000    
   16.0404091         0.00000000    
   16.1672020         0.00000000    
   16.2939949         0.00000000    
   16.4207878         0.00000000    
   16.5475807         0.00000000    
   16.6743736         0.00000000    
   16.8011646         0.00000000    
   16.9279575         0.00000000    
   17.0547504         0.00000000    
   17.1815434         0.00000000    
   17.3083363         0.00000000    
   17.4351292         0.00000000    
   17.5619221         0.00000000    
   17.6887150         0.00000000    
   17.8155060         0.00000000    
   17.9422989         0.00000000    
   18.0690918         0.00000000    
   18.1958847         0.00000000    
   18.3226776         0.00000000    
   18.4494705         0.00000000    
   18.5762634         0.00000000    
   18.7030544         0.00000000    
   18.8298473         0.00000000    
   18.9566402         0.00000000    
   19.0834332         0.00000000    
   19.2102261         0.00000000    
   19.3370190         0.00000000    
   19.4638119         0.00000000    
   19.5906048         0.00000000    
   19.7173958         0.00000000    
   19.8441887         0.00000000    
   19.9709816         0.00000000    
   20.0977745         0.00000000    
   20.2245674         0.00000000    
   20.3513603         0.00000000    
   20.4781532         0.00000000    
   20.6049442         0.00000000    
   20.7317371         0.00000000    
   20.8585300         0.00000000    
   20.9853230         0.00000000    
   21.1121159         0.00000000    
   21.2389088         0.00000000    
   21.3657017         0.00000000    
   21.4924946         0.00000000    
   21.6192856         0.00000000    
   21.7460785         0.00000000    
   21.8728714         0.00000000    
   21.9996643         0.00000000    
   22.1264572         0.00000000    
   22.2532501         0.00000000    
   22.3800430         0.00000000    
   22.5068340         0.00000000    
   22.6336269         0.00000000    
   22.7604198         0.00000000    
   22.8872128         0.00000000    
   23.0140057         0.00000000    
   23.1407986         0.00000000    
   23.2675915         0.00000000    
   23.3943844         0.00000000    
   23.5211754         0.00000000    
   23.6479683         0.00000000    
   23.7747612         0.00000000    
   23.9015541         0.00000000    
   24.0283470         0.00000000    
   24.1551399         0.00000000    
   24.2819328         0.00000000    
   24.4087238         0.00000000    
   24.5355167         0.00000000    
   24.6623096         0.00000000    
   24.7891026         0.00000000    
   24.9158955         0.00000000    
   25.0426884         0.00000000    
   25.1694813         0.00000000    
   25.2962742         0.00000000    
   25.4230652         0.00000000    
   25.5498581         0.00000000    
   25.6766510         0.00000000    
   25.8034439         0.00000000    
   25.9302368         0.00000000    
   26.0570297         0.00000000    
   26.1838226         0.00000000    
   26.3106136         0.00000000    
   26.4374065         0.00000000    
   26.5641994         0.00000000    
   26.6909924         0.00000000    
   26.8177853         0.00000000    
   26.9445782         0.00000000    
   27.0713711         0.00000000    
   27.1981640         0.00000000    
   27.3249550         0.00000000    
   27.4517479         0.00000000    
   27.5785408         0.00000000    
   27.7053337         0.00000000    
   27.8321266         0.00000000    
   27.9589195         0.00000000    
   28.0857124         0.00000000    
   28.2125034         0.00000000    
   28.3392963         0.00000000    
   28.4660892         0.00000000    
   28.5928822         0.00000000    
   28.7196751         0.00000000    
   28.8464680         0.00000000    
   28.9732609         0.00000000    
   29.1000538         2.16490703E-33
   29.2268448         4.01732762E-33
   29.3536377         5.86973039E-33
   29.4804306         3.24370907E-33
   29.6072235        -6.55597371E-33
   29.7340164        -2.25250534E-32
   29.8608093        -4.16938384E-32
   29.9876022        -6.21049871E-32
   30.1143932        -1.07457240E-31
   30.2411861        -1.81641160E-31
   30.3679790        -2.34676656E-31
   30.4947720        -2.82184895E-31
   30.6215649        -3.37058499E-31
   30.7483578        -3.82430324E-31
   30.8751507        -3.41376654E-31
   31.0019417        -2.12693783E-31
   31.1287346        -2.21491539E-32
   31.2555275         2.57765105E-31
   31.3823204         5.94865123E-31
   31.5091133         9.19610578E-31
   31.6359062         1.20145876E-30
   31.7626991         1.34816836E-30
   31.8894920         1.35931581E-30
   32.0162849         1.21533317E-30
   32.1430779         1.03313380E-30
   32.2698708         6.36693303E-31
   32.3966637         3.27949582E-32
   32.5234528        -3.62862505E-31
   32.6502457        -5.21475766E-31
   32.7770386        -1.43364241E-30
   32.9038315        -4.67191973E-30
   33.0306244        -9.42226243E-30
   33.1574173        -1.26787293E-29
   33.2842102        -1.47656099E-29
   33.4110031        -1.43765389E-29
   33.5377960        -1.59354754E-29
   33.6645889        -1.40247452E-29
   33.7913818        -1.22259304E-29
   33.9181747        -1.39941290E-29
   34.0449677        -1.76626268E-29
   34.1717606        -2.13645214E-29
   34.2985535        -2.33159564E-29
   34.4253426        -2.05745862E-29
   34.5521355        -1.81775001E-29
   34.6789284        -1.97084293E-29
   34.8057213        -9.85602925E-30
   34.9325142         1.04899107E-29
   35.0593071         4.56601969E-29
   35.1861000         9.39937892E-29
   35.3128929         1.51790832E-28
   35.4396858         2.08543209E-28
   35.5664787         2.69552457E-28
   35.6932716         3.22981076E-28
   35.8200645         3.63828533E-28
   35.9468575         3.76670056E-28
   36.0736504         3.61998466E-28
   36.2004433         3.17635609E-28
   36.3272324         2.44108659E-28
   36.4540253         1.50211161E-28
   36.5808182         3.23567004E-29
   36.7076111        -9.93985565E-29
   36.8344040        -2.38904339E-28
   36.9611969        -3.87400616E-28
   37.0879898        -5.44859207E-28
   37.2147827        -7.05452250E-28
   37.3415756        -8.65140635E-28
   37.4683685        -1.01433241E-27
   37.5951614        -1.14629819E-27
   37.7219543        -1.24562880E-27
   37.8487473        -1.29334025E-27
   37.9755402        -1.27283535E-27
   38.1023293        -1.17001400E-27
   38.2291222        -9.69454971E-28
   38.3559151        -6.58757693E-28
   38.4827080        -2.29956830E-28
   38.6095009         3.17723215E-28
   38.7362938         9.74589211E-28
   38.8630867         1.72591230E-27
   38.9898796         2.54325077E-27
   39.1166725         3.39450776E-27
   39.2434654         4.23725966E-27
   39.3702583         5.01923960E-27
   39.4970512         5.68266931E-27
   39.6238441         6.16295194E-27
   39.7506371         6.39335441E-27
   39.8774300         6.30560750E-27
   40.0042191         5.83349466E-27
   40.1310120         4.91771073E-27
   40.2578049         3.51200336E-27
   40.3845978         1.58887169E-27
   40.5113907        -8.54658954E-28
   40.6381836        -3.79082293E-27
   40.7649765        -7.15678187E-27
   40.8917694        -1.08441858E-26
   41.0185623        -1.47070898E-26
   41.1453552        -1.85602470E-26
   41.2721481        -2.21826100E-26
   41.3989410        -2.53216616E-26
   41.5257339        -2.77046255E-26
   41.6525269        -2.90456675E-26
   41.7793198        -2.90586128E-26
   41.9061089        -2.74724046E-26
   42.0329018        -2.40496881E-26
   42.1596947        -1.86086032E-26
   42.2864876        -1.10460372E-26
   42.4132805        -1.36237694E-27
   42.5400734         1.03159348E-26
   42.6668663         2.37163189E-26
   42.7936592         3.84063680E-26
   42.9204521         5.37856150E-26
   43.0472450         6.90883395E-26
   43.1740379         8.33972594E-26
   43.3008308         9.56706717E-26
   43.4276237         1.04784443E-25
   43.5544167         1.09588224E-25
   43.6812096         1.08977017E-25
   43.8079987         1.01973972E-25
   43.9347916         8.78233484E-26
   44.0615845         6.60859718E-26
   44.1883774         3.67361831E-26
   44.3151703         2.44821422E-28
   44.4419632        -4.23509499E-26
   44.5687561        -8.94032704E-26
   44.6955490        -1.38646261E-25
   44.8223419        -1.87222627E-25
   44.9491348        -2.31764721E-25
   45.0759277        -2.68524875E-25
   45.2027206        -2.93565958E-25
   45.3295135        -3.03005221E-25
   45.4563065        -2.93318477E-25
   45.5830994        -2.61676773E-25
   45.7098885        -2.06322971E-25
   45.8366814        -1.26940958E-25
   45.9634743        -2.50219977E-26
   46.0902672         9.58422551E-26
   46.2170601         2.29742180E-25
   46.3438530         3.68369299E-25
   46.4706459         5.01095836E-25
   46.5974388         6.15259885E-25
   46.7242317         6.96673535E-25
   46.8510246         7.30384273E-25
   46.9778175         7.01682901E-25
   47.1046104         5.97339381E-25
   47.2314034         4.07062211E-25
   47.3581963         1.25064862E-25
   47.4849892        -2.48278562E-25
   47.6117783        -7.04858805E-25
   47.7385712        -1.22745051E-24
   47.8653641        -1.78865059E-24
   47.9921570        -2.35035624E-24
   48.1189499        -2.86392086E-24
   48.2457428        -3.27112356E-24
   48.3725357        -3.50616605E-24
   48.4993286        -3.49875115E-24
   48.6261215        -3.17823559E-24
   48.7529144        -2.47898829E-24
   48.8797073        -1.34671385E-24
   49.0065002         2.54431061E-25
   49.1332932         2.33421556E-24
   49.2600861         4.86866807E-24
   49.3868790         7.79291549E-24
   49.5136681         1.09950826E-23
   49.6404610         1.43120983E-23
   49.7672539         1.75281280E-23
   49.8940468         2.03761636E-23
   50.0208397         2.25440070E-23
   50.1476326         2.36845847E-23
   50.2744255         2.34315670E-23
   50.4012184         2.14200569E-23
   50.5280113         1.73123730E-23
   50.6548042         1.08286108E-23
   50.7815971         1.78018730E-24
   50.9083900        -9.89385640E-24
   51.0351830        -2.40910090E-23
   51.1619759        -4.05113396E-23
   51.2887688        -5.86288872E-23
   51.4155579        -7.76710365E-23
   51.5423508        -9.66096052E-23
   51.6691437        -1.14166651E-22
   51.7959366        -1.28838215E-22
   51.9227295        -1.38938310E-22
   52.0495224        -1.42665419E-22
   52.1763153        -1.38192060E-22
   52.3031082        -1.23776365E-22
   52.4299011        -9.78949688E-23
   52.5566940        -5.93909457E-23
   52.6834869        -7.63357111E-24
   52.8102798         5.73201606E-23
   52.9370728         1.34570027E-22
   53.0638657         2.22236733E-22
   53.1906586         3.17356092E-22
   53.3174477         4.15818100E-22
   53.4442406         5.12364375E-22
   53.5710335         6.00656364E-22
   53.6978264         6.73424579E-22
   53.8246193         7.22709630E-22
   53.9514122         7.40196442E-22
   54.0782051         7.17643603E-22
   54.2049980         6.47399237E-22
   54.3317909         5.22991910E-22
   54.4585838         3.39775973E-22
   54.5853767         9.56008919E-23
   54.7121696        -2.08527719E-22
   54.8389626        -5.67837983E-22
   54.9657555        -9.73282196E-22
   55.0925484        -1.41117669E-21
   55.2193375        -1.86304096E-21
   55.3461304        -2.30569366E-21
   55.4729233        -2.71163961E-21
   55.5997162        -3.04979594E-21
   55.7265091        -3.28657416E-21
   55.8533020        -3.38731572E-21
   55.9800949        -3.31809548E-21
   56.1068878        -3.04782835E-21
   56.2336807        -2.55062091E-21
   56.3604736        -1.80829477E-21
   56.4872665        -8.12957741E-22
   56.6140594         4.30531605E-22
   56.7408524         1.90233648E-21
   56.8676453         3.56586536E-21
   56.9944382         5.36659070E-21
   57.1212273         7.23168790E-21
   57.2480202         9.07062187E-21
   57.3748131         1.07768750E-20
   57.5016060         1.22308759E-20
   57.6283989         1.33042227E-20
   57.7551918         1.38651950E-20
   57.8819847         1.37854447E-20
   58.0087776         1.29477580E-20
   58.1355705         1.12545685E-20
   58.2623634         8.63697567E-21
   58.3891563         5.06376666E-21
   58.5159492         5.49965197E-22
   58.6427422        -4.83565101E-21
   58.7695351        -1.09645965E-20
   58.8963280        -1.76450630E-20
   59.0231171        -2.46210422E-20
   59.1499100        -3.15748895E-20
   59.2767029        -3.81336434E-20
   59.4034958        -4.38795210E-20
   59.5302887        -4.83645622E-20
   59.6570816        -5.11295394E-20
   59.7838745        -5.17266022E-20
   59.9106674        -4.97452559E-20
   60.0374603        -4.48405401E-20
   60.1642532        -3.67626368E-20
   60.2910461        -2.53861536E-20
   60.4178391        -1.07376146E-20
   60.5446320         6.98054326E-21
   60.6714249         2.73714226E-20
   60.7982178         4.98325557E-20
   60.9250069         7.35538048E-20
   61.0517998         9.75259513E-20
   61.1785927         1.20561225E-19
   61.3053856         1.41326561E-19
   61.4321785         1.58389810E-19
   61.5589714         1.70278451E-19
   61.6857643         1.75549763E-19
   61.8125572         1.72870357E-19
   61.9393501         1.61102291E-19
   62.0661430         1.39392755E-19
   62.1929359         1.07262100E-19
   62.3197289         6.46863188E-20
   62.4465218         1.21686160E-20
   62.5733147        -4.92059373E-20
   62.7001076        -1.17737231E-19
   62.8268967        -1.91104131E-19
   62.9536896        -2.66389251E-19
   63.0804825        -3.40138115E-19
   63.2072754        -4.08455350E-19
   63.3340683        -4.67136809E-19
   63.4608612        -5.11837081E-19
   63.5876541        -5.38268914E-19
   63.7144470        -5.42427874E-19
   63.8412399        -5.20835720E-19
   63.9680328        -4.70790828E-19
   64.0948257        -3.90615727E-19
   64.2216187        -2.79885969E-19
   64.3484116        -1.39630672E-19
   64.4752045         2.75164830E-20
   64.6019974         2.17223186E-19
   64.7287903         4.23438357E-19
   64.8555832         6.38456461E-19
   64.9823761         8.53072865E-19
   65.1091690         1.05683656E-18
   65.2359619         1.23839908E-18
   65.3627548         1.38595601E-18
   65.4895477         1.48776984E-18
   65.6163330         1.53275906E-18
   65.7431259         1.51113345E-18
   65.8699188         1.41504650E-18
   65.9967117         1.23923753E-18
   66.1235046         9.81628364E-19
   66.2502975         6.43840269E-19
   66.3770905         2.31588289E-19
   66.5038834        -2.45069705E-19
   66.6306763        -7.71674829E-19
   66.7574692        -1.32951499E-18
   66.8842621        -1.89600446E-18
   67.0110550        -2.44530119E-18
   67.1378479        -2.94916524E-18
   67.2646408        -3.37803502E-18
   67.3914337        -3.70230905E-18
   67.5182266        -3.89378192E-18
   67.6450195        -3.92718720E-18
   67.7718124        -3.78178125E-18
   67.8986053        -3.44290128E-18
   68.0253983        -2.90340002E-18
   68.1521912        -2.16489172E-18
   68.2789841        -1.23871248E-18
   68.4057770        -1.46512828E-19
   68.5325699         1.07958702E-18
   68.6593628         2.39732389E-18
   68.7861557         3.75517209E-18
   68.9129486         5.09377284E-18
   69.0397415         6.34790313E-18
   69.1665344         7.44897400E-18
   69.2933273         8.32795515E-18
   69.4201126         8.91867874E-18
   69.5469055         9.16135285E-18
   69.6736984         9.00616467E-18
   69.8004913         8.41680427E-18
   69.9272842         7.37371297E-18
   70.0540771         5.87686513E-18
   70.1808701         3.94791882E-18
   70.3076630         1.63151336E-18
   70.4344559        -1.00436198E-18
   70.5612488        -3.86918157E-18
   70.6880417        -6.85179509E-18
   70.8148346        -9.82362921E-18
   70.9416275        -1.26430330E-17
   71.0684204        -1.51607615E-17
   71.1952133        -1.72263787E-17
   71.3220062        -1.86954416E-17
   71.4487991        -1.94371066E-17
   71.5755920        -1.93418981E-17
   71.7023849        -1.83292603E-17
   71.8291779        -1.63544162E-17
   71.9559708        -1.34143251E-17
   72.0827637        -9.55204762E-18
   72.2095566        -4.85949378E-18
   72.3363495         5.22099187E-19
   72.4631424         6.40391815E-18
   72.5899353         1.25539134E-17
   72.7167282         1.87036472E-17
   72.8435211         2.45576457E-17
   72.9703140         2.98050115E-17
   73.0971069         3.41329595E-17
   73.2238922         3.72418582E-17
   73.3506851         3.88611073E-17
   73.4774780         3.87652205E-17
   73.6042709         3.67893309E-17
   73.7310638         3.28432691E-17
   73.8578568         2.69235328E-17
   73.9846497         1.91220136E-17
   74.1114426         9.63117158E-18
   74.2382355        -1.25529456E-18
   74.3650284        -1.31465833E-17
   74.4918213        -2.55640797E-17
   74.6186142        -3.79558475E-17
   74.7454071        -4.97160264E-17
   74.8722000        -6.02089018E-17
   74.9989929        -6.87966777E-17
   75.1257858        -7.48701289E-17
   75.2525787        -7.78809208E-17
   75.3793716        -7.73741039E-17
   75.5061646        -7.30193289E-17
   75.6329575        -6.46391091E-17
   75.7597504        -5.22324389E-17
   75.8865433        -3.59923093E-17
   76.0133362        -1.63155867E-17
   76.1401291         6.19603443E-18
   76.2669220         3.07445133E-17
   76.3937149         5.63544453E-17
   76.5205078         8.19021303E-17
   76.6473007         1.06154523E-16
   76.7740936         1.27817192E-16
   76.9008865         1.45589691E-16
   77.0276718         1.58226430E-16
   77.1544647         1.64600908E-16
   77.2812576         1.63770075E-16
   77.4080505         1.55036715E-16
   77.5348434         1.38005252E-16
   77.6616364         1.12629614E-16
   77.7884293         7.92484555E-17
   77.9152222         3.86061901E-17
   78.0420151        -8.14327549E-18
   78.1688080        -5.94511382E-17
   78.2956009        -1.13408222E-16
   78.4223938        -1.67799000E-16
   78.5491867        -2.20175084E-16
   78.6759796        -2.67945400E-16
   78.8027725        -3.08481591E-16
   78.9295654        -3.39234234E-16
   79.0563583        -3.57855538E-16
   79.1831512        -3.62324378E-16
   79.3099442        -3.51066516E-16
   79.4367371        -3.23065486E-16
   79.5635300        -2.77958176E-16
   79.6903229        -2.16108135E-16
   79.8171158        -1.38653391E-16
   79.9439087        -4.75229026E-17
   80.0707016         5.45805433E-17
   80.1974945         1.64234011E-16
   80.3242874         2.77384417E-16
   80.4510803         3.89473531E-16
   80.5778732         4.95596542E-16
   80.7046585         5.90687796E-16
   80.8314514         6.69729205E-16
   80.9582443         7.27972355E-16
   81.0850372         7.61167100E-16
   81.2118301         7.65784806E-16
   81.3386230         7.39228682E-16
   81.4654160         6.80017532E-16
   81.5922089         5.87936051E-16
   81.7190018         4.64139380E-16
   81.8457947         3.11208322E-16
   81.9725876         1.33143428E-16
   82.0993805        -6.47010815E-17
   82.2261734        -2.75748558E-16
   82.3529663        -4.92391634E-16
   82.4797592        -7.06243789E-16
   82.6065521        -9.08442412E-16
   82.7333450        -1.08999037E-15
   82.8601379        -1.24213062E-15
   82.9869308        -1.35673428E-15
   83.1137238        -1.42668343E-15
   83.2405167        -1.44624121E-15
   83.3673096        -1.41138252E-15
   83.4941025        -1.32007184E-15
   83.6208954        -1.17247190E-15
   83.7476883        -9.71072876E-16
   83.8744812        -7.20724029E-16
   84.0012741        -4.28569687E-16
   84.1280670        -1.03873311E-16
   84.2548599         2.42250179E-16
   84.3816528         5.97210691E-16
   84.5084381         9.47398305E-16
   84.6352310         1.27871207E-15
   84.7620239         1.57714348E-15
   84.8888168         1.82938555E-15
   85.0156097         2.02344651E-15
   85.1424026         2.14924128E-15
   85.2691956         2.19913068E-15
   85.3959885         2.16837618E-15
   85.5227814         2.05549528E-15
   85.6495743         1.86248738E-15
   85.7763672         1.59490745E-15
   85.9031601         1.26179269E-15
   86.0299530         8.75411039E-16
   86.1567459         4.50852980E-16
   86.2835388         5.47231384E-18
   86.4103317        -4.41826467E-16
   86.5371246        -8.71397162E-16
   86.6639175        -1.26375802E-15
   86.7907104        -1.60053779E-15
   86.9175034        -1.86542828E-15
   87.0442963        -2.04509879E-15
   87.1710892        -2.13001893E-15
   87.2978821        -2.11515287E-15
   87.4246750        -2.00047943E-15
   87.5514679        -1.79129363E-15
   87.6782608        -1.49827624E-15
   87.8050537        -1.13728276E-15
   87.9318466        -7.28873916E-16
   88.0586395        -2.97554945E-16
   88.1854324         1.29225027E-16
   88.3122177         5.22323608E-16
   88.4390106         8.52339291E-16
   88.5658035         1.09118088E-15
   88.6925964         1.21371150E-15
   88.8193893         1.19939357E-15
   88.9461823         1.03386957E-15
   89.0729752         7.10343111E-16
   89.1997681         2.30766450E-16
   89.3265610        -3.93339522E-16
   89.4533539        -1.14042864E-15
   89.5801468        -1.97893112E-15
   89.7069397        -2.86776154E-15
   89.8337326        -3.75733312E-15
   89.9605255        -4.59111339E-15
   90.0873184        -5.30764440E-15
   90.2141113        -5.84308611E-15
   90.3409042        -6.13409571E-15
   90.4676971        -6.12103023E-15
   90.5944901        -5.75133465E-15
   90.7212830        -4.98296481E-15
   90.8480759        -3.78771958E-15
   90.9748688        -2.15431438E-15
   91.1016617        -9.10256744E-17
   91.2284546         2.37224282E-15
   91.3552475         5.18264944E-15
   91.4820404         8.26392448E-15
   91.6088333         1.15169316E-14
   91.7356262         1.48212233E-14
   91.8624191         1.80377445E-14
   91.9892120         2.10125886E-14
   92.1159973         2.35818784E-14
   92.2427902         2.55775337E-14
   92.3695831         2.68338987E-14
   92.4963760         2.71950024E-14
   92.6231689         2.65221516E-14
   92.7499619         2.47017000E-14
   92.8767548         2.16526084E-14
   93.0035477         1.73334552E-14
   93.1303406         1.17486290E-14
   93.2571335         4.95334407E-15
   93.3839264        -2.94293890E-15
   93.5107193        -1.17747134E-14
   93.6375122        -2.13208798E-14
   93.7643051        -3.13072525E-14
   93.8910980        -4.14114950E-14
   94.0178909        -5.12703927E-14
   94.1446838        -6.04894281E-14
   94.2714767        -6.86545886E-14
   94.3982697        -7.53459727E-14
   94.5250626        -8.01530608E-14
   94.6518555        -8.26910968E-14
   94.7786484        -8.26180216E-14
   94.9054413        -7.96514954E-14
   95.0322342        -7.35852284E-14
   95.1590271        -6.43040918E-14
   95.2858200        -5.17971489E-14
   95.4126129        -3.61680934E-14
   95.5394058        -1.76424139E-14
   95.6661987         3.42932364E-15
   95.7929916         2.65724129E-14
   95.9197769         5.11936651E-14
   96.0465698         7.65917210E-14
   96.1733627         1.01972433E-13
   96.3001556         1.26468619E-13
   96.4269485         1.49164494E-13
   96.5537415         1.69123613E-13
   96.6805344         1.85420174E-13
   96.8073273         1.97172275E-13
   96.9341202         2.03576630E-13
   97.0609131         2.03942955E-13
   97.1877060         1.97727658E-13
   97.3144989         1.84564373E-13
   97.4412918         1.64291120E-13
   97.5680847         1.36972302E-13
   97.6948776         1.02914252E-13
   97.8216705         6.26737093E-14
   97.9484634         1.70581153E-14
   98.0752563        -3.28828964E-14