  -4.50000000         0.00000000    
  -4.37320757         0.00000000    
  -4.24641466         0.00000000    
  -4.11962223         0.00000000    
  -3.99282932         0.00000000    
  -3.86603665         0.00000000    
  -3.73924398         0.00000000    
  -3.61245155         0.00000000    
  -3.48565888         0.00000000    
  -3.35886621         0.00000000    
  -3.23207355         0.00000000    
  -3.10528088         0.00000000    
  -2.97848821         0.00000000    
  -2.85169554         0.00000000    
  -2.72490287         0.00000000    
  -2.59811020         0.00000000    
  -2.47131753         0.00000000    
  -2.34452486         0.00000000    
  -2.21773219         0.00000000    
  -2.09093952         0.00000000    
  -1.96414697         0.00000000    
  -1.83735430         0.00000000    
  -1.71056163         0.00000000    
  -1.58376896         0.00000000    
  -1.45697629         0.00000000    
  -1.33018374         0.00000000    
  -1.20339108         0.00000000    
  -1.07659841         0.00000000    
 -0.949805737         0.00000000    
 -0.823013067         0.00000000    
 -0.696220458         0.00000000    
 -0.569427788         0.00000000    
 -0.442635119         0.00000000    
 -0.315842479         0.00000000    
 -0.189049825         0.00000000    
  -6.22571707E-02     0.00000000    
   6.45354837E-02     0.00000000    
  0.191328138         0.00000000    
  0.318120778         0.00000000    
  0.444913447         0.00000000    
  0.571706116         0.00000000    
  0.698498726         0.00000000    
  0.825291395         0.00000000    
  0.952084064         0.00000000    
   1.07887673         0.00000000    
   1.20566940         0.00000000    
   1.33246195         0.00000000    
   1.45925462         0.00000000    
   1.58604729         0.00000000    
   1.71283996         0.00000000    
   1.83963263         0.00000000    
   1.96642530         0.00000000    
   2.09321785         0.00000000    
   2.22001052         0.00000000    
   2.34680319         0.00000000    
   2.47359586         0.00000000    
   2.60038853         0.00000000    
   2.72718120         0.00000000    
   2.85397387         0.00000000    
   2.98076653         0.00000000    
   3.10755920         0.00000000    
   3.23435187         0.00000000    
   3.36114454         0.00000000    
   3.48793697         0.00000000    
   3.61472964         0.00000000    
   3.74152231         0.00000000    
   3.86831498         0.00000000    
   3.99510765         0.00000000    
   4.12190056         0.00000000    
   4.24869299         0.00000000    
   4.37548542         0.00000000    
   4.50227833         0.00000000    
   4.62907076         0.00000000    
   4.75586367         0.00000000    
   4.88265610         0.00000000    
   5.00944901         0.00000000    
   5.13624144         0.00000000    
   5.26303434         0.00000000    
   5.38982677         0.00000000    
   5.51661968         0.00000000    
   5.64341211         0.00000000    
   5.77020502         0.00000000    
   5.89699745         0.00000000    
   6.02379036         0.00000000    
   6.15058279         0.00000000    
   6.27737522         0.00000000    
   6.40416813         0.00000000    
   6.53096056         0.00000000    
   6.65775347         0.00000000    
   6.78454590         0.00000000    
   6.91133881         0.00000000    
   7.03813124         0.00000000    
   7.16492414         0.00000000    
   7.29171658         0.00000000    
   7.41850948         0.00000000    
   7.54530191         0.00000000    
   7.67209482         0.00000000    
   7.79888725         0.00000000    
   7.92567968         0.00000000    
   8.05247211         0.00000000    
   8.17926502         0.00000000    
   8.30605793         0.00000000    
   8.43285084         0.00000000    
   8.55964279         0.00000000    
   8.68643570         0.00000000    
   8.81322861         0.00000000    
   8.94002151         0.00000000    
   9.06681347         0.00000000    
   9.19360638         0.00000000    
   9.32039928         0.00000000    
   9.44719219         0.00000000    
   9.57398415         0.00000000    
   9.70077705         0.00000000    
   9.82756996         0.00000000    
   9.95436192         0.00000000    
   10.0811548         0.00000000    
   10.2079477         0.00000000    
   10.3347406         0.00000000    
   10.4615326         0.00000000    
   10.5883255         0.00000000    
   10.7151184         0.00000000    
   10.8419113         0.00000000    
   10.9687033         0.00000000    
   11.0954962         0.00000000    
   11.2222891         0.00000000    
   11.3490820         0.00000000    
   11.4758739         0.00000000    
   11.6026669         0.00000000    
   11.7294598         0.00000000    
   11.8562517         0.00000000    
   11.9830446         0.00000000    
   12.1098375         0.00000000    
   12.2366304         0.00000000    
   12.3634224         0.00000000    
   12.4902153         0.00000000    
   12.6170082         0.00000000    
   12.7438011         0.00000000    
   12.8705931         0.00000000    
   12.9973860         0.00000000    
   13.1241789         0.00000000    
   13.2509708         0.00000000    
   13.3777637         0.00000000    
   13.5045567         0.00000000    
   13.6313496         0.00000000    
   13.7581415         0.00000000    
   13.8849344         0.00000000    
   14.0117273         0.00000000    
   14.1385202         0.00000000    
   14.2653122         0.00000000    
   14.3921051         0.00000000    
   14.5188980         0.00000000    
   14.6456909         0.00000000    
   14.7724829         0.00000000    
   14.8992758         0.00000000    
   15.0260687         0.00000000    
   15.1528606         0.00000000    
   15.2796535         0.00000000    
   15.4064465         0.00000000    
   15.5332394         0.00000000    
   15.6600313         0.00000000    
   15.7868242         0.00000000    
   15.9136171         0.00000000    
   16.0404091         0.00000000    
   16.1672020         0.00000000    
   16.2939949         0.00000000    
   16.4207878         0.00000000    
   16.5475807         0.00000000    
   16.6743736         0.00000000    
   16.8011646         0.00000000    
   16.9279575         0.00000000    
   17.0547504         0.00000000    
   17.1815434         0.00000000    
   17.3083363         0.00000000    
   17.4351292         0.00000000    
   17.5619221         0.00000000    
   17.6887150         0.00000000    
   17.8155060         0.00000000    
   17.9422989         0.00000000    
   18.0690918         0.00000000    
   18.1958847         0.00000000    
   18.3226776         0.00000000    
   18.4494705         0.00000000    
   18.5762634         0.00000000    
   18.7030544         0.00000000    
   18.8298473         0.00000000    
   18.9566402         0.00000000    
   19.0834332         0.00000000    
   19.2102261         0.00000000    
   19.3370190         0.00000000    
   19.4638119         0.00000000    
   19.5906048         0.00000000    
   19.7173958         0.00000000    
   19.8441887         0.00000000    
   19.9709816         0.00000000    
   20.0977745         0.00000000    
   20.2245674         0.00000000    
   20.3513603         0.00000000    
   20.4781532         0.00000000    
   20.6049442         0.00000000    
   20.7317371         0.00000000    
   20.8585300         0.00000000    
   20.9853230         0.00000000    
   21.1121159         0.00000000    
   21.2389088         0.00000000    
   21.3657017         0.00000000    
   21.4924946         0.00000000    
   21.6192856         0.00000000    
   21.7460785         0.00000000    
   21.8728714         0.00000000    
   21.9996643         0.00000000    
   22.1264572         0.00000000    
   22.2532501         0.00000000    
   22.3800430         0.00000000    
   22.5068340         0.00000000    
   22.6336269         0.00000000    
   22.7604198         0.00000000    
   22.8872128         0.00000000    
   23.0140057         0.00000000    
   23.1407986         0.00000000    
   23.2675915         0.00000000    
   23.3943844         0.00000000    
   23.5211754         0.00000000    
   23.6479683         0.00000000    
   23.7747612         0.00000000    
   23.9015541         0.00000000    
   24.0283470         0.00000000    
   24.1551399         0.00000000    
   24.2819328         0.00000000    
   24.4087238         0.00000000    
   24.5355167         0.00000000    
   24.6623096         0.00000000    
   24.7891026         0.00000000    
   24.9158955         0.00000000    
   25.0426884         0.00000000    
   25.1694813         0.00000000    
   25.2962742         0.00000000    
   25.4230652         0.00000000    
   25.5498581         0.00000000    
   25.6766510         0.00000000    
   25.8034439         0.00000000    
   25.9302368         0.00000000    
   26.0570297         0.00000000    
   26.1838226         0.00000000    
   26.3106136         0.00000000    
   26.4374065         0.00000000    
   26.5641994         0.00000000    
   26.6909924         0.00000000    
   26.8177853         0.00000000    
   26.9445782         0.00000000    
   27.0713711         0.00000000    
   27.1981640         0.00000000    
   27.3249550         0.00000000    
   27.4517479         0.00000000    
   27.5785408         0.00000000    
   27.7053337         0.00000000    
   27.8321266         0.00000000    
   27.9589195         0.00000000    
   28.0857124         0.00000000    
   28.2125034         0.00000000    
   28.3392963         0.00000000    
   28.4660892         0.00000000    
   28.5928822         0.00000000    
   28.7196751         0.00000000    
   28.8464680         0.00000000    
   28.9732609         0.00000000    
   29.1000538        -3.52576123E-33
   29.2268448        -1.61754341E-32
   29.3536377        -2.88250610E-32
   29.4804306        -3.41811570E-32
   29.6072235        -2.78542673E-32
   29.7340164        -4.11673734E-33
   29.8608093         2.48318303E-32
   29.9876022         5.44330703E-32
   30.1143932         5.31188559E-32
   30.2411861         1.61491780E-32
   30.3679790        -3.48175755E-32
   30.4947720        -6.12409223E-32
   30.6215649        -5.30679041E-32
   30.7483578        -1.46194837E-32
   30.8751507         2.83154607E-32
   31.0019417         4.78249700E-32
   31.1287346         7.30173539E-32
   31.2555275         1.38556483E-31
   31.3823204         2.50994422E-31
   31.5091133         4.13744765E-31
   31.6359062         5.31750198E-31
   31.7626991         5.00403196E-31
   31.8894920         3.18332592E-31
   32.0162849         1.06662253E-31
   32.1430779        -2.04269274E-31
   32.2698708        -3.63679873E-31
   32.3966637        -5.81032752E-31
   32.5234528        -1.76074816E-30
   32.6502457        -3.80046690E-30
   32.7770386        -4.30824247E-30
   32.9038315        -2.99329499E-30
   33.0306244        -1.59936633E-30
   33.1574173        -4.82329820E-30
   33.2842102        -1.03653527E-29
   33.4110031        -1.49850169E-29
   33.5377960        -1.77773249E-29
   33.6645889        -2.03747033E-29
   33.7913818        -1.48015074E-29
   33.9181747         3.83699299E-30
   34.0449677         3.82099265E-29
   34.1717606         8.78710051E-29
   34.2985535         1.52283822E-28
   34.4253426         2.25304650E-28
   34.5521355         3.09153862E-28
   34.6789284         3.94316269E-28
   34.8057213         4.67309471E-28
   34.9325142         5.26260935E-28
   35.0593071         5.59628394E-28
   35.1861000         5.59552849E-28
   35.3128929         5.21146965E-28
   35.4396858         4.38326633E-28
   35.5664787         3.10355064E-28
   35.6932716         1.23411027E-28
   35.8200645        -1.28638133E-28
   35.9468575        -4.58717898E-28
   36.0736504        -8.63880402E-28
   36.2004433        -1.33896428E-27
   36.3272324        -1.86198541E-27
   36.4540253        -2.39272818E-27
   36.5808182        -2.88920268E-27
   36.7076111        -3.29998813E-27
   36.8344040        -3.56545099E-27
   36.9611969        -3.63372406E-27
   37.0879898        -3.45347743E-27
   37.2147827        -2.97830429E-27
   37.3415756        -2.16139549E-27
   37.4683685        -9.54568110E-28
   37.5951614         6.72443399E-28
   37.7219543         2.73222552E-27
   37.8487473         5.19522260E-27
   37.9755402         7.98922734E-27
   38.1023293         1.09951795E-26
   38.2291222         1.40477007E-26
   38.3559151         1.69409759E-26
   38.4827080         1.94318890E-26
   38.6095009         2.12529867E-26
   38.7362938         2.21142210E-26
   38.8630867         2.17183376E-26
   38.9898796         1.97664646E-26
   39.1166725         1.59811309E-26
   39.2434654         1.01295387E-26
   39.3702583         2.05181932E-27
   39.4970512        -8.29606418E-27
   39.6238441        -2.08052034E-26
   39.7506371        -3.51817542E-26
   39.8774300        -5.09246815E-26
   40.0042191        -6.73172420E-26
   40.1310120        -8.34295657E-26
   40.2578049        -9.81319485E-26
   40.3845978        -1.10122825E-25
   40.5113907        -1.17968565E-25
   40.6381836        -1.20151121E-25
   40.7649765        -1.15145651E-25
   40.8917694        -1.01509721E-25
   41.0185623        -7.80056047E-26
   41.1453552        -4.37349447E-26
   41.2721481         1.71472226E-27
   41.3989410         5.81234317E-26
   41.5257339         1.24504659E-25
   41.6525269         1.98997054E-25
   41.7793198         2.78788054E-25
   41.9061089         3.60083079E-25
   42.0329018         4.38126395E-25
   42.1596947         5.07281245E-25
   42.2864876         5.61179033E-25
   42.4132805         5.92945672E-25
   42.5400734         5.95510259E-25
   42.6668663         5.62000385E-25
   42.7936592         4.86216194E-25
   42.9204521         3.63173762E-25
   43.0472450         1.89689530E-25
   43.1740379        -3.50204568E-26
   43.3008308        -3.08767406E-25
   43.4276237        -6.25881207E-25
   43.5544167        -9.76809876E-25
   43.6812096        -1.34787210E-24
   43.8079987        -1.72120180E-24
   43.9347916        -2.07493039E-24
   44.0615845        -2.38364085E-24
   44.1883774        -2.61913298E-24
   44.3151703        -2.75150759E-24
   44.4419632        -2.75059054E-24
   44.5687561        -2.58767144E-24
   44.6955490        -2.23751521E-24
   44.8223419        -1.68058691E-24
   44.9491348        -9.05383451E-25
   45.0759277         8.92262759E-26
   45.2027206         1.29181476E-24
   45.3295135         2.67649185E-24
   45.4563065         4.20146805E-24
   45.5830994         5.80823927E-24
   45.7098885         7.42157894E-24
   45.8366814         8.95047421E-24
   45.9634743         1.02901643E-23
   46.0902672         1.13253652E-23
   46.2170601         1.19347319E-23
   46.3438530         1.19965399E-23
   46.4706459         1.13955194E-23
   46.5974388         1.00306283E-23
   46.7242317         7.82356116E-24
   46.8510246         4.72758818E-24
   46.9778175         7.36358662E-25
   47.1046104        -4.10787405E-24
   47.2314034        -9.70715116E-24
   47.3581963        -1.59024151E-23
   47.4849892        -2.24704883E-23
   47.6117783        -2.91239431E-23
   47.7385712        -3.55145558E-23
   47.8653641        -4.12406352E-23
   47.9921570        -4.58587532E-23
   48.1189499        -4.88998940E-23
   48.2457428        -4.98900533E-23
   48.3725357        -4.83749797E-23
   48.4993286        -4.39484098E-23
   48.6261215        -3.62830988E-23
   48.7529144        -2.51632981E-23
   48.8797073        -1.05173271E-23
   49.0065002         7.55149408E-24
   49.1332932         2.87374328E-23
   49.2600861         5.25106587E-23
   49.3868790         7.81033512E-23
   49.5136681         1.04505907E-22
   49.6404610         1.30475006E-22
   49.7672539         1.54555724E-22
   49.8940468         1.75118614E-22
   50.0208397         1.90412847E-22
   50.1476326         1.98635428E-22
   50.2744255         1.98015851E-22
   50.4012184         1.86914609E-22
   50.5280113         1.63933210E-22
   50.6548042         1.28031103E-22
   50.7815971         7.86465229E-23
   50.9083900         1.58137566E-23
   51.0351830        -5.97283510E-23
   51.1619759        -1.46444593E-22
   51.2887688        -2.41935940E-22
   51.4155579        -3.42904153E-22
   51.5423508        -4.45156556E-22
   51.6691437        -5.43657086E-22
   51.7959366        -6.32631206E-22
   51.9227295        -7.05726982E-22
   52.0495224        -7.56235638E-22
   52.1763153        -7.77371304E-22
   52.3031082        -7.62605494E-22
   52.4299011        -7.06049241E-22
   52.5566940        -6.02873606E-22
   52.6834869        -4.49751640E-22
   52.8102798        -2.45304591E-22
   52.9370728         9.47034459E-24
   53.0638657         3.10815715E-22
   53.1906586         6.51901122E-22
   53.3174477         1.02261142E-21
   53.4442406         1.40946437E-21
   53.5710335         1.79568794E-21
   53.6978264         2.16147908E-21
   53.8246193         2.48446706E-21
   53.9514122         2.74039262E-21
   54.0782051         2.90400980E-21
   54.2049980         2.95020286E-21
   54.3317909         2.85529601E-21
   54.4585838         2.59853418E-21
   54.5853767         2.16367830E-21
   54.7121696         1.54065489E-21
   54.8389626         7.27193288E-22
   54.9657555        -2.69650404E-22
   55.0925484        -1.43217367E-21
   55.2193375        -2.73101838E-21
   55.3461304        -4.12458830E-21
   55.4729233        -5.55899137E-21
   55.5997162        -6.96860730E-21
   55.7265091        -8.27737990E-21
   55.8533020        -9.40085596E-21
   55.9800949        -1.02490562E-20
   56.1068878        -1.07301239E-20
   56.2336807        -1.07547261E-20
   56.3604736        -1.02411236E-20
   56.4872665        -9.12072042E-21
   56.6140594        -7.34392435E-21
   56.7408524        -4.88606258E-21
   56.8676453        -1.75302311E-21
   56.9944382         2.01369890E-21
   57.1212273         6.33290689E-21
   57.2480202         1.10809931E-20
   57.3748131         1.60909457E-20
   57.5016060         2.11534575E-20
   57.6283989         2.60204250E-20
   57.7551918         3.04110949E-20
   57.8819847         3.40209628E-20
   58.0087776         3.65334528E-20
   58.1355705         3.76342040E-20
   58.2623634         3.70277514E-20
   58.3891563         3.44559822E-20
   58.5159492         2.97178400E-20
   58.6427422         2.26893526E-20
   58.7695351         1.33430404E-20
   58.8963280         1.76554432E-21
   59.0231171        -1.18277393E-20
   59.1499100        -2.70823182E-20
   59.2767029        -4.34997967E-20
   59.4034958        -6.04397351E-20
   59.5302887        -7.71293253E-20
   59.6570816        -9.26814905E-20
   59.7838745        -1.06121922E-19
   59.9106674        -1.16425232E-19
   60.0374603        -1.22559487E-19
   60.1642532        -1.23538442E-19
   60.2910461        -1.18479884E-19
   60.4178391        -1.06667874E-19
   60.5446320        -8.76165150E-20
   60.6714249        -6.11318526E-20
   60.7982178        -2.73685307E-20
   60.9250069         1.31226768E-20
   61.0517998         5.93604195E-20
   61.1785927         1.09915191E-19
   61.3053856         1.62912356E-19
   61.4321785         2.16058607E-19
   61.5589714         2.66694739E-19
   61.6857643         3.11874931E-19
   61.8125572         3.48473899E-19
   61.9393501         3.73319535E-19
   62.0661430         3.83348428E-19
   62.1929359         3.75779829E-19
   62.3197289         3.48301638E-19
   62.4465218         2.99259987E-19
   62.5733147         2.27844392E-19
   62.7001076         1.34256532E-19
   62.8268967         1.98531490E-20
   62.9536896        -1.12750482E-19
   63.0804825        -2.59625059E-19
   63.2072754        -4.15532320E-19
   63.3340683        -5.73997739E-19
   63.4608612        -7.27457424E-19
   63.5876541        -8.67483230E-19
   63.7144470        -9.85084635E-19
   63.8412399        -1.07108381E-18
   63.9680328        -1.11655507E-18
   64.0948257        -1.11331521E-18
   64.2216187        -1.05444652E-18
   64.3484116        -9.34829277E-19
   64.4752045        -7.51660987E-19
   64.6019974        -5.04928417E-19
   64.7287903        -1.97807332E-19
   64.8555832         1.63046579E-19
   64.9823761         5.67339866E-19
   65.1091690         1.00114941E-18
   65.2359619         1.44711443E-18
   65.3627548         1.88483008E-18
   65.4895477         2.29144994E-18
   65.6163330         2.64249650E-18
   65.7431259         2.91286462E-18
   65.8699188         3.07799407E-18
   65.9967117         3.11517708E-18
   66.1235046         3.00494554E-18
   66.2502975         2.73248569E-18
   66.3770905         2.28900935E-18
   66.5038834         1.67300619E-18
   66.6306763         8.91293727E-19
   66.7574692        -4.02063964E-20
   66.8842621        -1.09604843E-18
   67.0110550        -2.24126283E-18
   67.1378479        -3.43183381E-18
   67.2646408        -4.61568932E-18
   67.3914337        -5.73422652E-18
   67.5182266        -6.72435138E-18
   67.6450195        -7.52101812E-18
   67.7718124        -8.06017445E-18
   67.8986053        -8.28204910E-18
   68.0253983        -8.13463973E-18
   68.1521912        -7.57724903E-18
   68.2789841        -6.58392217E-18
   68.4057770        -5.14657467E-18
   68.5325699        -3.27763514E-18
   68.6593628        -1.01200275E-18
   68.7861557         1.59186060E-18
   68.9129486         4.45185338E-18
   69.0397415         7.46331979E-18
   69.1665344         1.05013639E-17
   69.2933273         1.34244366E-17
   69.4201126         1.60791603E-17
   69.5469055         1.83063358E-17
   69.6736984         1.99478956E-17
   69.8004913         2.08546857E-17
   69.9272842         2.08946799E-17
   70.0540771         1.99613736E-17
   70.1808701         1.79818577E-17
   70.3076630         1.49242656E-17
   70.4344559         1.08040426E-17
   70.5612488         5.68869354E-18
   70.6880417        -2.99486428E-19
   70.8148346        -6.98294872E-18
   70.9416275        -1.41311019E-17
   71.0684204        -2.14652459E-17
   71.1952133        -2.86664107E-17
   71.3220062        -3.53859462E-17
   71.4487991        -4.12587267E-17
   71.5755920        -4.59185461E-17
   71.7023849        -4.90152754E-17
   71.8291779        -5.02330077E-17
   71.9559708        -4.93086830E-17
   72.0827637        -4.60499520E-17
   72.2095566        -4.03517728E-17
   72.3363495        -3.22104991E-17
   72.4631424        -2.17346338E-17
   72.5899353        -9.15147962E-18
   72.7167282         5.19126103E-18
   72.8435211         2.08292648E-17
   72.9703140         3.71913274E-17
   73.0971069         5.36150481E-17
   73.2238922         6.93684117E-17
   73.3506851         8.36766709E-17
   73.4774780         9.57539380E-17
   73.6042709         1.04838373E-16
   73.7310638         1.10229493E-16
   73.8578568         1.11326334E-16
   73.9846497         1.07664505E-16
   74.1114426         9.89502963E-17
   74.2382355         8.50901042E-17
   74.3650284         6.62131544E-17
   74.4918213         4.26860070E-17
   74.6186142         1.51173113E-17
   74.7454071        -1.56483299E-17
   74.8722000        -4.85478654E-17
   74.9989929        -8.23291143E-17
   75.1257858        -1.15591357E-16
   75.2525787        -1.46836351E-16
   75.3793716        -1.74528161E-16
   75.5061646        -1.97159928E-16
   75.6329575        -2.13324705E-16
   75.7597504        -2.21787888E-16
   75.8865433        -2.21557085E-16
   76.0133362        -2.11946966E-16
   76.1401291        -1.92634747E-16
   76.2669220        -1.63703437E-16
   76.3937149        -1.25669540E-16
   76.5205078        -7.94927980E-17
   76.6473007        -2.65662404E-17
   76.7740936         3.13150099E-17
   76.9008865         9.20057974E-17
   77.0276718         1.53083351E-16
   77.1544647         2.11937940E-16
   77.2812576         2.65879036E-16
   77.4080505         3.12253084E-16
   77.5348434         3.48567769E-16
   77.6616364         3.72617576E-16
   77.7884293         3.82605073E-16
   77.9152222         3.77251243E-16
   78.0420151         3.55888437E-16
   78.1688080         3.18531769E-16
   78.2956009         2.65921891E-16
   78.4223938         1.99536359E-16
   78.5491867         1.21566830E-16
   78.6759796         3.48599255E-17
   78.8027725        -5.71771459E-17
   78.9295654        -1.50704248E-16
   79.0563583        -2.41605825E-16
   79.1831512        -3.25671542E-16
   79.3099442        -3.98794097E-16
   79.4367371        -4.57174334E-16
   79.5635300        -4.97525077E-16
   79.6903229        -5.17262904E-16
   79.8171158        -5.14676595E-16
   79.9439087        -4.89064489E-16
   80.0707016        -4.40828980E-16
   80.1974945        -3.71522336E-16
   80.3242874        -2.83836770E-16
   80.4510803        -1.81535850E-16
   80.5778732        -6.93271255E-17
   80.7046585         4.73237506E-17
   80.8314514         1.62430148E-16
   80.9582443         2.69765832E-16
   81.0850372         3.63178135E-16
   81.2118301         4.36921829E-16
   81.3386230         4.85994418E-16
   81.4654160         5.06459581E-16
   81.5922089         4.95736885E-16
   81.7190018         4.52845731E-16
   81.8457947         3.78580476E-16
   81.9725876         2.75608877E-16
   82.0993805         1.48477213E-16
   82.2261734         3.51801528E-18
   82.3529663        -1.51345253E-16
   82.4797592        -3.06895336E-16
   82.6065521        -4.53010426E-16
   82.7333450        -5.79138078E-16
   82.8601379        -6.74832949E-16
   82.9869308        -7.30338912E-16
   83.1137238        -7.37187809E-16
   83.2405167        -6.88785805E-16
   83.3673096        -5.80964546E-16
   83.4941025        -4.12447553E-16
   83.6208954        -1.85225724E-16
   83.7476883         9.52079723E-17
   83.8744812         4.19772826E-16
   84.0012741         7.75892344E-16
   84.1280670         1.14776183E-15
   84.2548599         1.51681737E-15
   84.3816528         1.86237304E-15
   84.5084381         2.16243403E-15
   84.6352310         2.39465404E-15
   84.7620239         2.53739752E-15
   84.8888168         2.57088031E-15
   85.0156097         2.47832862E-15
   85.1424026         2.24711065E-15
   85.2691956         1.86978119E-15
   85.3959885         1.34498721E-15
   85.5227814         6.78179153E-16
   85.6495743        -1.17928744E-16
   85.7763672        -1.02317557E-15
   85.9031601        -2.01010553E-15
   86.0299530        -3.04445558E-15
   86.1567459        -4.08598656E-15
   86.2835388        -5.08968207E-15
   86.4103317        -6.00723686E-15
   86.5371246        -6.78885684E-15
   86.6639175        -7.38526587E-15
   86.7907104        -7.74988475E-15
   86.9175034        -7.84108479E-15
   87.0442963        -7.62442393E-15
   87.1710892        -7.07478298E-15
   87.2978821        -6.17829474E-15
   87.4246750        -4.93395845E-15
   87.5514679        -3.35486838E-15
   87.6782608        -1.46894677E-15
   87.8050537         6.80851753E-16
   87.9318466         3.03695045E-15
   88.0586395         5.52817535E-15
   88.1854324         8.07143455E-15
   88.3122177         1.05739925E-14
   88.4390106         1.29363056E-14
   88.5658035         1.50553686E-14
   88.6925964         1.68284660E-14
   88.8193893         1.81571711E-14
   88.9461823         1.89514847E-14
   89.0729752         1.91340067E-14
   89.1997681         1.86438423E-14
   89.3265610         1.74402559E-14
   89.4533539         1.55057428E-14
   89.5801468         1.28484691E-14
   89.7069397         9.50390194E-15
   89.8337326         5.53553226E-15
   89.9605255         1.03458245E-15
   90.0873184        -3.88137220E-15
   90.2141113        -9.07080299E-15
   90.3409042        -1.43717351E-14
   90.4676971        -1.96062208E-14
   90.5944901        -2.45857124E-14
   90.7212830        -2.91171607E-14
   90.8480759        -3.30097278E-14
   90.9748688        -3.60817536E-14
   91.1016617        -3.81679382E-14
   91.2284546        -3.91263255E-14
   91.3552475        -3.88449072E-14
   91.4820404        -3.72474946E-14
   91.6088333        -3.42987933E-14
   91.7356262        -3.00081954E-14
   91.8624191        -2.44322283E-14
   91.9892120        -1.76755464E-14
   92.1159973        -9.89014389E-15
   92.2427902        -1.27292207E-15
   92.3695831         7.93849866E-15
   92.4963760         1.74716893E-14
   92.6231689         2.70268749E-14
   92.7499619         3.62858005E-14
   92.8767548         4.49217452E-14
   93.0035477         5.26104632E-14
   93.1303406         5.90415778E-14
   93.2571335         6.39302386E-14
   93.3839264         6.70284276E-14
   93.5107193         6.81356826E-14
   93.6375122         6.71086721E-14
   93.7643051         6.38693742E-14
   93.8910980         5.84112972E-14
   94.0178909         5.08036165E-14
   94.1446838         4.11926962E-14
   94.2714767         2.98012144E-14
   94.3982697         1.69242367E-14
   94.5250626         2.92267638E-15
   94.6518555        -1.17859815E-14
   94.7786484        -2.67395359E-14
   94.9054413        -4.14451561E-14
   95.0322342        -5.53953313E-14
   95.1590271        -6.80852876E-14
   95.2858200        -7.90310742E-14
   95.4126129        -8.77882158E-14
   95.5394058        -9.39695777E-14
   95.6661987        -9.72623064E-14
   95.7929916        -9.74430633E-14
   95.9197769        -9.43904650E-14
   96.0465698        -8.80948079E-14
   96.1733627        -7.86639498E-14
   96.3001556        -6.63250379E-14
   96.4269485        -5.14222250E-14
   96.5537415        -3.44092735E-14
   96.6805344        -1.58382303E-14
   96.8073273         3.65698936E-15
   96.9341202         2.33804743E-14
   97.0609131         4.25980086E-14
   97.1877060         6.05637841E-14
   97.3144989         7.65486578E-14
   97.4412918         8.98699314E-14
   97.5680847         9.99206075E-14
   97.6948776         1.06197732E-13
   97.8216705         1.08328128E-13
   97.9484634         1.06090585E-13
   98.0752563         9.94333400E-14