  -4.50000000         0.00000000    
  -4.37320757         0.00000000    
  -4.24641466         0.00000000    
  -4.11962223         0.00000000    
  -3.99282932         0.00000000    
  -3.86603665         0.00000000    
  -3.73924398         0.00000000    
  -3.61245155         0.00000000    
  -3.48565888         0.00000000    
  -3.35886621         0.00000000    
  -3.23207355         0.00000000    
  -3.10528088         0.00000000    
  -2.97848821         0.00000000    
  -2.85169554         0.00000000    
  -2.72490287         0.00000000    
  -2.59811020         0.00000000    
  -2.47131753         0.00000000    
  -2.34452486         0.00000000    
  -2.21773219         0.00000000    
  -2.09093952         0.00000000    
  -1.96414697         0.00000000    
  -1.83735430         0.00000000    
  -1.71056163         0.00000000    
  -1.58376896         0.00000000    
  -1.45697629         0.00000000    
  -1.33018374         0.00000000    
  -1.20339108         0.00000000    
  -1.07659841         0.00000000    
 -0.949805737         0.00000000    
 -0.823013067         0.00000000    
 -0.696220458         0.00000000    
 -0.569427788         0.00000000    
 -0.442635119         0.00000000    
 -0.315842479         0.00000000    
 -0.189049825         0.00000000    
  -6.22571707E-02     0.00000000    
   6.45354837E-02     0.00000000    
  0.191328138         0.00000000    
  0.318120778         0.00000000    
  0.444913447         0.00000000    
  0.571706116         0.00000000    
  0.698498726         0.00000000    
  0.825291395         0.00000000    
  0.952084064         0.00000000    
   1.07887673         0.00000000    
   1.20566940         0.00000000    
   1.33246195         0.00000000    
   1.45925462         0.00000000    
   1.58604729         0.00000000    
   1.71283996         0.00000000    
   1.83963263         0.00000000    
   1.96642530         0.00000000    
   2.09321785         0.00000000    
   2.22001052         0.00000000    
   2.34680319         0.00000000    
   2.47359586         0.00000000    
   2.60038853         0.00000000    
   2.72718120         0.00000000    
   2.85397387         0.00000000    
   2.98076653         0.00000000    
   3.10755920         0.00000000    
   3.23435187         0.00000000    
   3.36114454         0.00000000    
   3.48793697         0.00000000    
   3.61472964         0.00000000    
   3.74152231         0.00000000    
   3.86831498         0.00000000    
   3.99510765         0.00000000    
   4.12190056         0.00000000    
   4.24869299         0.00000000    
   4.37548542         0.00000000    
   4.50227833         0.00000000    
   4.62907076         0.00000000    
   4.75586367         0.00000000    
   4.88265610         0.00000000    
   5.00944901         0.00000000    
   5.13624144         0.00000000    
   5.26303434         0.00000000    
   5.38982677         0.00000000    
   5.51661968         0.00000000    
   5.64341211         0.00000000    
   5.77020502         0.00000000    
   5.89699745         0.00000000    
   6.02379036         0.00000000    
   6.15058279         0.00000000    
   6.27737522         0.00000000    
   6.40416813         0.00000000    
   6.53096056         0.00000000    
   6.65775347         0.00000000    
   6.78454590         0.00000000    
   6.91133881         0.00000000    
   7.03813124         0.00000000    
   7.16492414         0.00000000    
   7.29171658         0.00000000    
   7.41850948         0.00000000    
   7.54530191         0.00000000    
   7.67209482         0.00000000    
   7.79888725         0.00000000    
   7.92567968         0.00000000    
   8.05247211         0.00000000    
   8.17926502         0.00000000    
   8.30605793         0.00000000    
   8.43285084         0.00000000    
   8.55964279         0.00000000    
   8.68643570         0.00000000    
   8.81322861         0.00000000    
   8.94002151         0.00000000    
   9.06681347         0.00000000    
   9.19360638         0.00000000    
   9.32039928         0.00000000    
   9.44719219         0.00000000    
   9.57398415         0.00000000    
   9.70077705         0.00000000    
   9.82756996         0.00000000    
   9.95436192         0.00000000    
   10.0811548         0.00000000    
   10.2079477         0.00000000    
   10.3347406         0.00000000    
   10.4615326         0.00000000    
   10.5883255         0.00000000    
   10.7151184         0.00000000    
   10.8419113         0.00000000    
   10.9687033         0.00000000    
   11.0954962         0.00000000    
   11.2222891         0.00000000    
   11.3490820         0.00000000    
   11.4758739         0.00000000    
   11.6026669         0.00000000    
   11.7294598         0.00000000    
   11.8562517         0.00000000    
   11.9830446         0.00000000    
   12.1098375         0.00000000    
   12.2366304         0.00000000    
   12.3634224         0.00000000    
   12.4902153         0.00000000    
   12.6170082         0.00000000    
   12.7438011         0.00000000    
   12.8705931         0.00000000    
   12.9973860         0.00000000    
   13.1241789         0.00000000    
   13.2509708         0.00000000    
   13.3777637         0.00000000    
   13.5045567         0.00000000    
   13.6313496         0.00000000    
   13.7581415         0.00000000    
   13.8849344         0.00000000    
   14.0117273         0.00000000    
   14.1385202         0.00000000    
   14.2653122         0.00000000    
   14.3921051         0.00000000    
   14.5188980         0.00000000    
   14.6456909         0.00000000    
   14.7724829         0.00000000    
   14.8992758         0.00000000    
   15.0260687         0.00000000    
   15.1528606         0.00000000    
   15.2796535         0.00000000    
   15.4064465         0.00000000    
   15.5332394         0.00000000    
   15.6600313         0.00000000    
   15.7868242         0.00000000    
   15.9136171         0.00000000    
   16.0404091         0.00000000    
   16.1672020         0.00000000    
   16.2939949         0.00000000    
   16.4207878         0.00000000    
   16.5475807         0.00000000    
   16.6743736         0.00000000    
   16.8011646         0.00000000    
   16.9279575         0.00000000    
   17.0547504         0.00000000    
   17.1815434         0.00000000    
   17.3083363         0.00000000    
   17.4351292         0.00000000    
   17.5619221         0.00000000    
   17.6887150         0.00000000    
   17.8155060         0.00000000    
   17.9422989         0.00000000    
   18.0690918         0.00000000    
   18.1958847         0.00000000    
   18.3226776         0.00000000    
   18.4494705         0.00000000    
   18.5762634         0.00000000    
   18.7030544         0.00000000    
   18.8298473         0.00000000    
   18.9566402         0.00000000    
   19.0834332         0.00000000    
   19.2102261         0.00000000    
   19.3370190         0.00000000    
   19.4638119         0.00000000    
   19.5906048         0.00000000    
   19.7173958         0.00000000    
   19.8441887         0.00000000    
   19.9709816         0.00000000    
   20.0977745         0.00000000    
   20.2245674         0.00000000    
   20.3513603         0.00000000    
   20.4781532         0.00000000    
   20.6049442         0.00000000    
   20.7317371         0.00000000    
   20.8585300         0.00000000    
   20.9853230         0.00000000    
   21.1121159         0.00000000    
   21.2389088         0.00000000    
   21.3657017         0.00000000    
   21.4924946         0.00000000    
   21.6192856         0.00000000    
   21.7460785         0.00000000    
   21.8728714         0.00000000    
   21.9996643         0.00000000    
   22.1264572         0.00000000    
   22.2532501         0.00000000    
   22.3800430         0.00000000    
   22.5068340         0.00000000    
   22.6336269         0.00000000    
   22.7604198         0.00000000    
   22.8872128         0.00000000    
   23.0140057         0.00000000    
   23.1407986         0.00000000    
   23.2675915         0.00000000    
   23.3943844         0.00000000    
   23.5211754         0.00000000    
   23.6479683         0.00000000    
   23.7747612         0.00000000    
   23.9015541         0.00000000    
   24.0283470         0.00000000    
   24.1551399         0.00000000    
   24.2819328         0.00000000    
   24.4087238         0.00000000    
   24.5355167         0.00000000    
   24.6623096         0.00000000    
   24.7891026         0.00000000    
   24.9158955         0.00000000    
   25.0426884         0.00000000    
   25.1694813         0.00000000    
   25.2962742         0.00000000    
   25.4230652         0.00000000    
   25.5498581         0.00000000    
   25.6766510         0.00000000    
   25.8034439         0.00000000    
   25.9302368         0.00000000    
   26.0570297         0.00000000    
   26.1838226         0.00000000    
   26.3106136         0.00000000    
   26.4374065         0.00000000    
   26.5641994         0.00000000    
   26.6909924         0.00000000    
   26.8177853         0.00000000    
   26.9445782         0.00000000    
   27.0713711         0.00000000    
   27.1981640         0.00000000    
   27.3249550         0.00000000    
   27.4517479         0.00000000    
   27.5785408         0.00000000    
   27.7053337         0.00000000    
   27.8321266         0.00000000    
   27.9589195         0.00000000    
   28.0857124         0.00000000    
   28.2125034         0.00000000    
   28.3392963         0.00000000    
   28.4660892         0.00000000    
   28.5928822         0.00000000    
   28.7196751         0.00000000    
   28.8464680         0.00000000    
   28.9732609         0.00000000    
   29.1000538         2.90647517E-33
   29.2268448         5.73762760E-33
   29.3536377         8.56898574E-33
   29.4804306         5.38815386E-33
   29.6072235        -7.42358258E-33
   29.7340164        -3.29263021E-32
   29.8608093        -6.35540013E-32
   29.9876022        -9.19776428E-32
   30.1143932        -1.06292125E-31
   30.2411861        -9.91998037E-32
   30.3679790        -6.72473341E-32
   30.4947720        -3.23087649E-32
   30.6215649        -2.25209818E-32
   30.7483578        -3.93237626E-32
   30.8751507        -5.07143822E-32
   31.0019417        -1.87880996E-32
   31.1287346         7.86652222E-32
   31.2555275         2.37361720E-31
   31.3823204         4.44594815E-31
   31.5091133         6.54212212E-31
   31.6359062         8.71039057E-31
   31.7626991         1.03060414E-30
   31.8894920         1.11937352E-30
   32.0162849         1.12168370E-30
   32.1430779         1.24416701E-30
   32.2698708         1.24127492E-30
   32.3966637         1.11678490E-30
   32.5234528         1.40775642E-30
   32.6502457         2.18642796E-30
   32.7770386         2.49170422E-30
   32.9038315         2.91674322E-30
   33.0306244         1.15621258E-30
   33.1574173         3.63874634E-30
   33.2842102         1.01390778E-29
   33.4110031         1.75297466E-29
   33.5377960         2.16872155E-29
   33.6645889         2.47288953E-29
   33.7913818         1.98169479E-29
   33.9181747         8.34839549E-30
   34.0449677        -7.55310679E-30
   34.1717606        -2.65902916E-29
   34.2985535        -4.46933891E-29
   34.4253426        -6.58870143E-29
   34.5521355        -8.09458545E-29
   34.6789284        -8.55896087E-29
   34.8057213        -8.02219938E-29
   34.9325142        -6.46505673E-29
   35.0593071        -3.13803863E-29
   35.1861000         2.30287942E-29
   35.3128929         1.02539170E-28
   35.4396858         2.00592248E-28
   35.5664787         3.18034156E-28
   35.6932716         4.49640364E-28
   35.8200645         5.84967276E-28
   35.9468575         7.16657406E-28
   36.0736504         8.34340200E-28
   36.2004433         9.19923712E-28
   36.3272324         9.57825243E-28
   36.4540253         9.37140370E-28
   36.5808182         8.43991613E-28
   36.7076111         6.69341689E-28
   36.8344040         4.08901024E-28
   36.9611969         5.55471298E-29
   37.0879898        -3.92963761E-28
   37.2147827        -9.44343926E-28
   37.3415756        -1.59386284E-27
   37.4683685        -2.32821973E-27
   37.5951614        -3.12337323E-27
   37.7219543        -3.93481932E-27
   37.8487473        -4.71021027E-27
   37.9755402        -5.37986459E-27
   38.1023293        -5.85721672E-27
   38.2291222        -6.04705256E-27
   38.3559151        -5.85228943E-27
   38.4827080        -5.17919232E-27
   38.6095009        -3.95056919E-27
   38.7362938        -2.11444401E-27
   38.8630867         3.51400218E-28
   38.9898796         3.42627790E-27
   39.1166725         7.03734494E-27
   39.2434654         1.10582807E-26
   39.3702583         1.52965260E-26
   39.4970512         1.95011531E-26
   39.6238441         2.33665931E-26
   39.7506371         2.65399987E-26
   39.8774300         2.86310255E-26
   40.0042191         2.92330466E-26
   40.1310120         2.79469876E-26
   40.2578049         2.44049467E-26
   40.3845978         1.83074448E-26
   40.5113907         9.45711028E-27
   40.6381836        -2.19663211E-27
   40.7649765        -1.65249750E-26
   40.8917694        -3.31822384E-26
   41.0185623        -5.15783422E-26
   41.1453552        -7.08612181E-26
   41.2721481        -8.99139346E-26
   41.3989410        -1.07370613E-25
   41.5257339        -1.21651399E-25
   41.6525269        -1.31022339E-25
   41.7793198        -1.33681885E-25
   41.9061089        -1.27869632E-25
   42.0329018        -1.11998712E-25
   42.1596947        -8.48066827E-26
   42.2864876        -4.55179029E-26
   42.4132805         5.99053768E-27
   42.5400734         6.90320469E-26
   42.6668663         1.41974144E-25
   42.7936592         2.22139311E-25
   42.9204521         3.05752478E-25
   43.0472450         3.87956345E-25
   43.1740379         4.62901410E-25
   43.3008308         5.23924435E-25
   43.4276237         5.63819597E-25
   43.5544167         5.75205916E-25
   43.6812096         5.50984682E-25
   43.8079987         4.84875377E-25
   43.9347916         3.72011617E-25
   44.0615845         2.09568665E-25
   44.1883774        -2.60944576E-27
   44.3151703        -2.61432941E-25
   44.4419632        -5.60078079E-25
   44.5687561        -8.87646012E-25
   44.6955490        -1.22902123E-24
   44.8223419        -1.56497106E-24
   44.9491348        -1.87254477E-24
   45.0759277        -2.12578884E-24
   45.2027206        -2.29680738E-24
   45.3295135        -2.35716806E-24
   45.4563065        -2.27962125E-24
   45.5830994        -2.04009271E-24
   45.7098885        -1.61988011E-24
   45.8366814        -1.00792590E-24
   45.9634743        -2.03079039E-25
   46.0902672         7.83844884E-25
   46.2170601         1.92835333E-24
   46.3438530         3.19108416E-24
   46.4706459         4.51734098E-24
   46.5974388         5.83747722E-24
   46.7242317         7.06831204E-24
   46.8510246         8.11564164E-24
   46.9778175         8.87793214E-24
   47.1046104         9.25116590E-24
   47.2314034         9.13475764E-24
   47.3581963         8.43837174E-24
   47.4849892         7.08939908E-24
   47.6117783         5.04073599E-24
   47.7385712         2.27848273E-24
   47.8653641        -1.17099686E-24
   47.9921570        -5.23508528E-24
   48.1189499        -9.79064184E-24
   48.2457428        -1.46619960E-23
   48.3725357        -1.96216670E-23
   48.4993286        -2.43943197E-23
   48.6261215        -2.86642550E-23
   48.7529144        -3.20865923E-23
   48.8797073        -3.43021397E-23
   49.0065002        -3.49557678E-23
   49.1332932        -3.37176948E-23
   49.2600861        -3.03070231E-23
   49.3868790        -2.45165458E-23
   49.5136681        -1.62376036E-23
   49.6404610        -5.48350626E-24
   49.7672539         7.58987532E-24
   49.8940468         2.26683047E-23
   50.0208397         3.92694264E-23
   50.1476326         5.67409789E-23
   50.2744255         7.42680735E-23
   50.4012184         9.08907612E-23
   50.5280113         1.05532417E-22
   50.6548042         1.17039430E-22
   50.7815971         1.24231052E-22
   50.9083900         1.25959453E-22
   51.0351830         1.21177012E-22
   51.1619759         1.09009192E-22
   51.2887688         8.88299915E-23
   51.4155579         6.03355530E-23
   51.5423508         2.36130429E-23
   51.6691437        -2.08011829E-23
   51.7959366        -7.18770488E-23
   51.9227295        -1.28065623E-22
   52.0495224        -1.87296228E-22
   52.1763153        -2.47000983E-22
   52.3031082        -3.04167852E-22
   52.4299011        -3.55424525E-22
   52.5566940        -3.97153146E-22
   52.6834869        -4.25635165E-22
   52.8102798        -4.37222913E-22
   52.9370728        -4.28533225E-22
   53.0638657        -3.96657439E-22
   53.1906586        -3.39379372E-22
   53.3174477        -2.55392317E-22
   53.4442406        -1.44503932E-22
   53.5710335        -7.81814405E-24
   53.6978264         1.52117613E-22
   53.8246193         3.31212553E-22
   53.9514122         5.23791019E-22
   54.0782051         7.22618854E-22
   54.2049980         9.19006748E-22
   54.3317909         1.10300102E-21
   54.4585838         1.26365258E-21
   54.5853767         1.38938494E-21
   54.7121696         1.46843734E-21
   54.8389626         1.48938979E-21
   54.9657555         1.44174945E-21
   55.0925484         1.31658901E-21
   55.2193375         1.10721043E-21
   55.3461304         8.09811940E-22
   55.4729233         4.24129791E-22
   55.5997162        -4.59812160E-23
   55.7265091        -5.92058613E-22
   55.8533020        -1.20067629E-21
   55.9800949        -1.85325171E-21
   56.1068878        -2.52606399E-21
   56.2336807        -3.19050287E-21
   56.3604736        -3.81358858E-21
   56.4872665        -4.35876806E-21
   56.6140594        -4.78703436E-21
   56.7408524        -5.05832294E-21
   56.8676453        -5.13322196E-21
   56.9944382        -4.97493481E-21
   57.1212273        -4.55147569E-21
   57.2480202        -3.83801222E-21
   57.3748131        -2.81930194E-21
   57.5016060        -1.49209872E-21
   57.6283989         1.32579599E-22
   57.7551918         2.02746431E-21
   57.8819847         4.14745815E-21
   58.0087776         6.42866597E-21
   58.1355705         8.78812677E-21
   58.2623634         1.11244709E-20
   58.3891563         1.33196144E-20
   58.5159492         1.52415233E-20
   58.6427422         1.67483007E-20
   58.7695351         1.76934321E-20
   58.8963280         1.79322869E-20
   59.0231171         1.73297149E-20
   59.1499100         1.57685844E-20
   59.2767029         1.31589516E-20
   59.4034958         9.44758278E-21
   59.5302887         4.62732670E-21
   59.6570816        -1.25417040E-21
   59.7838745        -8.08697003E-21
   59.9106674        -1.56931672E-20
   60.0374603        -2.38238469E-20
   60.1642532        -3.21589857E-20
   60.2910461        -4.03113288E-20
   60.4178391        -4.78342974E-20
   60.5446320        -5.42346074E-20
   60.6714249        -5.89896939E-20
   60.7982178        -6.15696638E-20
   60.9250069        -6.14639268E-20
   61.0517998        -5.82113428E-20
   61.1785927        -5.14333570E-20
   61.3053856        -4.08686256E-20
   61.4321785        -2.64075730E-20
   61.5589714        -8.12496460E-21
   61.6857643         1.36914160E-20
   61.8125572         3.85188446E-20
   61.9393501         6.55858648E-20
   62.0661430         9.38701297E-20
   62.1929359         1.22108854E-19
   62.3197289         1.48824190E-19
   62.4465218         1.72364768E-19
   62.5733147         1.90963472E-19
   62.7001076         2.02811891E-19
   62.8268967         2.06149319E-19
   62.9536896         1.99364874E-19
   63.0804825         1.81108675E-19
   63.2072754         1.50408293E-19
   63.3340683         1.06783938E-19
   63.4608612         5.03573275E-20
   63.5876541        -1.80540586E-20
   63.7144470        -9.68642973E-20
   63.8412399        -1.83675365E-19
   63.9680328        -2.75270534E-19
   64.0948257        -3.67649729E-19
   64.2216187        -4.56113594E-19
   64.3484116        -5.35399166E-19
   64.4752045        -5.99866210E-19
   64.6019974        -6.43736923E-19
   64.7287903        -6.61379238E-19
   64.8555832        -6.47629118E-19
   64.9823761        -5.98139884E-19
   65.1091690        -5.09742246E-19
   65.2359619        -3.80800634E-19
   65.3627548        -2.11542511E-19
   65.4895477        -4.34097156E-21
   65.6163330         2.36072151E-19
   65.7431259         5.02485856E-19
   65.8699188         7.85202903E-19
   65.9967117         1.07216370E-18
   66.1235046         1.34921057E-18
   66.2502975         1.60051239E-18
   66.3770905         1.80913230E-18
   66.5038834         1.95774771E-18
   66.6306763         2.02949590E-18
   66.7574692         2.00892351E-18
   66.8842621         1.88300615E-18
   67.0110550         1.64218554E-18
   67.1378479         1.28139138E-18
   67.2646408         8.00963123E-19
   67.3914337         2.07437110E-19
   67.5182266        -4.85880670E-19
   67.6450195        -1.25861289E-18
   67.7718124        -2.08333316E-18
   67.8986053        -2.92595372E-18
   68.0253983        -3.74652640E-18
   68.1521912        -4.50044776E-18
   68.2789841        -5.14008833E-18
   68.4057770        -5.61680534E-18
   68.5325699        -5.88328447E-18
   68.6593628        -5.89614796E-18
   68.7861557        -5.61872481E-18
   68.9129486        -5.02384216E-18
   69.0397415        -4.09653423E-18
   69.1665344        -2.83647677E-18
   69.2933273        -1.26001321E-18
   69.4201126         5.98406805E-19
   69.5469055         2.68551362E-18
   69.6736984         4.92937937E-18
   69.8004913         7.24055013E-18
   69.9272842         9.51420659E-18
   70.0540771         1.16334350E-17
   70.1808701         1.34734917E-17
   70.3076630         1.49070354E-17
   70.4344559         1.58102091E-17
   70.5612488         1.60692804E-17
   70.6880417         1.55876264E-17
   70.8148346         1.42927992E-17
   70.9416275         1.21431785E-17
   71.0684204         9.13397648E-18
   71.1952133         5.30212433E-18
   71.3220062         7.29631565E-19
   71.4487991        -4.45486597E-18
   71.5755920        -1.00767266E-17
   71.7023849        -1.59183166E-17
   71.8291779        -2.17245521E-17
   71.9559708        -2.72110095E-17
   72.0827637        -3.20744080E-17
   72.2095566        -3.60054350E-17
   72.3363495        -3.87032912E-17
   72.4631424        -3.98915593E-17
   72.5899353        -3.93347873E-17
   72.7167282        -3.68549197E-17
   72.8435211        -3.23467953E-17
   72.9703140        -2.57918406E-17
   73.0971069        -1.72689372E-17
   73.2238922        -6.96182914E-18
   73.3506851         4.83799246E-18
   73.4774780         1.77334305E-17
   73.6042709         3.12292974E-17
   73.7310638         4.47457728E-17
   73.8578568         5.76374554E-17
   73.9846497         6.92178582E-17
   74.1114426         7.87886886E-17
   74.2382355         8.56729820E-17
   74.3650284         8.92508227E-17
   74.4918213         8.89961834E-17
   74.6186142         8.45130564E-17
   74.7454071         7.55691694E-17
   74.8722000         6.21250955E-17
   74.9989929         4.43570872E-17
   75.1257858         2.26713993E-17
   75.2525787        -2.29112982E-18
   75.3793716        -2.96617836E-17
   75.5061646        -5.83626546E-17
   75.6329575        -8.71379520E-17
   75.7597504        -1.14597324E-16
   75.8865433        -1.39270520E-16
   76.0133362        -1.59672077E-16
   76.1401291        -1.74373286E-16
   76.2669220        -1.82079102E-16
   76.3937149        -1.81706487E-16
   76.5205078        -1.72460448E-16
   76.6473007        -1.53903676E-16
   76.7740936        -1.26015474E-16
   76.9008865        -8.92364232E-17
   77.0276718        -4.44943859E-17
   77.1544647         6.79086497E-18
   77.2812576         6.27273227E-17
   77.4080505         1.20995824E-16
   77.5348434         1.78920980E-16
   77.6616364         2.33567800E-16
   77.7884293         2.81861039E-16
   77.9152222         3.20723573E-16
   78.0420151         3.47230331E-16
   78.1688080         3.58769487E-16
   78.2956009         3.53205963E-16
   78.4223938         3.29037572E-16
   78.5491867         2.85536659E-16
   78.6759796         2.22867656E-16
   78.8027725         1.42172932E-16
   78.9295654         4.56195236E-17
   79.0563583        -6.36004019E-17
   79.1831512        -1.81318877E-16
   79.3099442        -3.02495424E-16
   79.4367371        -4.21372951E-16
   79.5635300        -5.31685916E-16
   79.6903229        -6.26914601E-16
   79.8171158        -7.00578992E-16
   79.9439087        -7.46559487E-16
   80.0707016        -7.59436876E-16
   80.1974945        -7.34828928E-16
   80.3242874        -6.69717399E-16
   80.4510803        -5.62737932E-16
   80.5778732        -4.14424343E-16
   80.7046585        -2.27385148E-16
   80.8314514        -6.39963873E-18
   80.9582443         2.41579514E-16
   81.0850372         5.07526895E-16
   81.2118301         7.80553672E-16
   81.3386230         1.04822561E-15
   81.4654160         1.29698775E-15
   81.5922089         1.51268364E-15
   81.7190018         1.68115574E-15
   81.8457947         1.78890839E-15
   81.9725876         1.82380445E-15
   82.0993805         1.77577143E-15
   82.2261734         1.63748356E-15
   82.3529663         1.40498213E-15
   82.4797592         1.07821047E-15
   82.6065521         6.61419229E-16
   82.7333450         1.63417392E-16
   82.8601379        -4.02356399E-16
   82.9869308        -1.01796568E-15
   83.1137238        -1.66131918E-15
   83.2405167        -2.30673732E-15
   83.3673096        -2.92572592E-15
   83.4941025        -3.48795716E-15
   83.6208954        -3.96241250E-15
   83.7476883        -4.31867880E-15
   83.8744812        -4.52832411E-15
   84.0012741        -4.56633344E-15
   84.1280670        -4.41250760E-15
   84.2548599        -4.05280871E-15
   84.3816528        -3.48054054E-15
   84.5084381        -2.69733915E-15
   84.6352310        -1.71389102E-15
   84.7620239        -5.50331282E-16
   84.8888168         7.63718945E-16
   85.0156097         2.18950838E-15
   85.1424026         3.67993210E-15
   85.2691956         5.18071100E-15
   85.3959885         6.63198676E-15
   85.5227814         7.97026240E-15
   85.6495743         9.13068144E-15
   85.7763672         1.00495216E-14
   85.9031601         1.06668909E-14
   86.0299530         1.09294457E-14
   86.1567459         1.07930946E-14
   86.2835388         1.02255469E-14
   86.4103317         9.20857459E-15
   86.5371246         7.73990925E-15
   86.6639175         5.83464289E-15
   86.7907104         3.52605353E-15
   86.9175034         8.65787686E-16
   87.0442963        -2.07669016E-15
   87.1710892        -5.21535846E-15
   87.2978821        -8.44965594E-15
   87.4246750        -1.16672004E-14
   87.5514679        -1.47471756E-14
   87.6782608        -1.75642734E-14
   87.8050537        -1.99930929E-14
   87.9318466        -2.19128474E-14
   88.0586395        -2.32122467E-14
   88.1854324        -2.37943176E-14
   88.3122177        -2.35810567E-14
   88.4390106        -2.25176120E-14
   88.5658035        -2.05759736E-14
   88.6925964        -1.77577967E-14
   88.8193893        -1.40963952E-14
   88.9461823        -9.65761810E-15
   89.0729752        -4.53962522E-15
   89.1997681         1.12856944E-15
   89.3265610         7.18974525E-15
   89.4533539         1.34623613E-14
   89.5801468         1.97455018E-14
   89.7069397         2.58248741E-14
   89.8337326         3.14795966E-14
   89.9605255         3.64896169E-14
   90.0873184         4.06435411E-14
   90.2141113         4.37465582E-14
   90.3409042         4.56281944E-14
   90.4676971         4.61496584E-14
   90.5944901         4.52103565E-14
   90.7212830         4.27534900E-14
   90.8480759         3.87702836E-14
   90.9748688         3.33027944E-14
   91.1016617         2.64450124E-14
   91.2284546         1.83422139E-14
   91.3552475         9.18844909E-15
   91.4820404        -7.77798433E-16
   91.6088333        -1.12796591E-14
   91.7356262        -2.20096344E-14
   91.8624191        -3.26386663E-14
   91.9892120        -4.28263822E-14
   92.1159973        -5.22321884E-14
   92.2427902        -6.05267518E-14
   92.3695831        -6.74035412E-14
   92.4963760        -7.25900460E-14
   92.6231689        -7.58581633E-14
   92.7499619        -7.70334114E-14
   92.8767548        -7.60025452E-14
   93.0035477        -7.27192896E-14
   93.1303406        -6.72079241E-14
   93.2571335        -5.95643665E-14
   93.3839264        -4.99548455E-14
   93.5107193        -3.86120274E-14
   93.6375122        -2.58285740E-14
   93.7643051        -1.19485144E-14
   93.8910980         2.64356018E-15
   94.0178909         1.75349186E-14
   94.1446838         3.22984335E-14
   94.2714767         4.65071470E-14
   94.3982697         5.97489858E-14
   94.5250626         7.16412606E-14
   94.6518555         8.18441520E-14
   94.7786484         9.00728331E-14
   94.9054413         9.61075363E-14
   95.0322342         9.98010743E-14
   95.1590271         1.01083726E-13
   95.2858200         9.99648430E-14
   95.4126129         9.65312357E-14
   95.5394058         9.09423632E-14
   95.6661987         8.34223370E-14
   95.7929916         7.42490379E-14
   95.9197769         6.37408014E-14
   96.0465698         5.22412144E-14
   96.1733627         4.01026902E-14
   96.3001556         2.76694171E-14
   96.4269485         1.52608740E-14
   96.5537415         3.15616123E-15
   96.6805344        -8.41939061E-15
   96.8073273        -1.93050396E-14
   96.9341202        -2.94118706E-14
   97.0609131        -3.87260889E-14
   97.1877060        -4.73078709E-14
   97.3144989        -5.52854915E-14
   97.4412918        -6.28448980E-14
   97.5680847        -7.02147962E-14
   97.6948776        -7.76477881E-14
   97.8216705        -8.53984038E-14
   97.9484634        -9.36986898E-14
   98.0752563        -1.02732655E-13