  -4.50000000         0.00000000    
  -4.37320757         0.00000000    
  -4.24641466         0.00000000    
  -4.11962223         0.00000000    
  -3.99282932        -2.82382732E-23
  -3.86603665        -9.87300317E-23
  -3.73924398         6.27487278E-22
  -3.61245155         6.42234579E-21
  -3.48565888         2.75883023E-20
  -3.35886621         7.59639958E-20
  -3.23207355         1.45723724E-19
  -3.10528088         1.86306587E-19
  -2.97848821         9.96928220E-20
  -2.85169554        -1.98273719E-19
  -2.72490287        -6.58234866E-19
  -2.59811020        -1.01854699E-18
  -2.47131753        -9.33666778E-19
  -2.34452486        -4.09074288E-19
  -2.21773219        -4.03519641E-19
  -2.09093952        -3.16986964E-18
  -1.96414697        -1.18139201E-17
  -1.83735430        -2.88569964E-17
  -1.71056163        -5.42401485E-17
  -1.58376896        -8.38413858E-17
  -1.45697629        -1.09719910E-16
  -1.33018374        -1.22704991E-16
  -1.20339108        -1.16820442E-16
  -1.07659841        -9.39353914E-17
 -0.949805737        -6.65060823E-17
 -0.823013067        -5.64881971E-17
 -0.696220458        -8.92710919E-17
 -0.569427788        -1.82599458E-16
 -0.442635119        -3.32029795E-16
 -0.315842479        -4.96913573E-16
 -0.189049825        -5.94047393E-16
  -6.22571707E-02    -5.08668272E-16
   6.45354837E-02    -1.31424759E-16
  0.191328138         5.77357986E-16
  0.318120778         1.50909031E-15
  0.444913447         2.34417046E-15
  0.571706116         2.54693553E-15
  0.698498726         1.45649475E-15
  0.825291395        -1.51325972E-15
  0.952084064        -6.59382877E-15
   1.07887673        -1.33784627E-14
   1.20566940        -2.06403125E-14
   1.33246195        -2.63521623E-14
   1.45925462        -2.79597563E-14
   1.58604729        -2.28803877E-14
   1.71283996        -9.11483684E-15
   1.83963263         1.41977714E-14
   1.96642530         4.64567146E-14
   2.09321785         8.56301588E-14
   2.22001052         1.28667151E-13
   2.34680319         1.72220257E-13
   2.47359586         2.13537819E-13
   2.60038853         2.51371732E-13
   2.72718120         2.86782886E-13
   2.85397387         3.23792994E-13
   2.98076653         3.69878444E-13
   3.10755920         4.36308460E-13
   3.23435187         5.38272497E-13
   3.36114454         6.94659716E-13
   3.48793697         9.27280171E-13
   3.61472964         1.25931893E-12
   3.74152231         1.71291312E-12
   3.86831498         2.30594970E-12
   3.99510765         3.04844149E-12
   4.12190056         3.93910338E-12
   4.24869299         4.96294412E-12
   4.37548542         6.09074336E-12
   4.50227833         7.28119127E-12
   4.62907076         8.48617444E-12
   4.75586367         9.65924042E-12
   4.88265610         1.07666697E-11
   5.00944901         1.17998493E-11
   5.13624144         1.27868965E-11
   5.26303434         1.38010220E-11
   5.38982677         1.49627446E-11
   5.51661968         1.64335906E-11
   5.64341211         1.83998389E-11
   5.77020502         2.10467251E-11
   5.89699745         2.45256489E-11
   6.02379036         2.89193426E-11
   6.15058279         3.42115399E-11
   6.27737522         4.02683789E-11
   6.40416813         4.68371973E-11
   6.53096056         5.35654646E-11
   6.65775347         6.00374403E-11
   6.78454590         6.58204949E-11
   6.91133881         7.05076691E-11
   7.03813124         7.37400627E-11
   7.16492414         7.51926924E-11
   7.29171658         7.45123269E-11
   7.41850948         7.12051321E-11
   7.54530191         6.44840292E-11
   7.67209482         5.30996254E-11
   7.79888725         3.51900765E-11
   7.92567968         8.19114481E-12
   8.05247211        -3.11537671E-11
   8.17926502        -8.66557728E-11
   8.30605793        -1.62407254E-10
   8.43285084        -2.62394634E-10
   8.55964279        -3.90046911E-10
   8.68643570        -5.47794643E-10
   8.81322861        -7.36728678E-10
   8.94002151        -9.56443258E-10
   9.06681347        -1.20512056E-09
   9.19360638        -1.47987134E-09
   9.32039928        -1.77728432E-09
   9.44719219        -2.09406470E-09
   9.57398415        -2.42759191E-09
   9.70077705        -2.77617418E-09
   9.82756996        -3.13878679E-09
   9.95436192        -3.51410478E-09
   10.0811548        -3.89873200E-09
   10.2079477        -4.28461799E-09
   10.3347406        -4.65582417E-09
   10.4615326        -4.98490405E-09
   10.5883255        -5.22928767E-09
   10.7151184        -5.32813660E-09
   10.8419113        -5.20014831E-09
   10.9687033        -4.74273820E-09
   11.0954962        -3.83296195E-09
   11.2222891        -2.33037745E-09
   11.3490820        -8.18714749E-11
   11.4758739         3.07157522E-09
   11.6026669         7.28650340E-09
   11.7294598         1.27072122E-08
   11.8562517         1.94551699E-08
   11.9830446         2.76179986E-08
   12.1098375         3.72387206E-08
   12.2366304         4.83060347E-08
   12.3634224         6.07466930E-08
   12.4902153         7.44207469E-08
   12.6170082         8.91222101E-08
   12.7438011         1.04585922E-07
   12.8705931         1.20503884E-07
   12.9973860         1.36552842E-07
   13.1241789         1.52436314E-07
   13.2509708         1.67943000E-07
   13.3777637         1.83024682E-07
   13.5045567         1.97894209E-07
   13.6313496         2.13144560E-07
   13.7581415         2.29890361E-07
   13.8849344         2.49926671E-07
   14.0117273         2.75907126E-07
   14.1385202         3.11533654E-07
   14.2653122         3.61753905E-07
   14.3921051         4.32961002E-07
   14.5188980         5.33187631E-07
   14.6456909         6.72286831E-07
   14.7724829         8.62090076E-07
   14.8992758         1.11653833E-06
   15.0260687         1.45176955E-06
   15.1528606         1.88616491E-06
   15.2796535         2.44034300E-06
   15.4064465         3.13708006E-06
   15.5332394         4.00118051E-06
   15.6600313         5.05925709E-06
   15.7868242         6.33947138E-06
   15.9136171         7.87113913E-06
   16.0404091         9.68433233E-06
   16.1672020         1.18093476E-05
   16.2939949         1.42761646E-05
   16.4207878         1.71138126E-05
   16.5475807         2.03496747E-05
   16.6743736         2.40088339E-05
   16.8011646         2.81133543E-05
   16.9279575         3.26815425E-05
   17.0547504         3.77273391E-05
   17.1815434         4.32596244E-05
   17.3083363         4.92817744E-05
   17.4351292         5.57910826E-05
   17.5619221         6.27786721E-05
   17.6887150         7.02291145E-05
   17.8155060         7.81206472E-05
   17.9422989         8.64252142E-05
   18.0690918         9.51089314E-05
   18.1958847         1.04132727E-04
   18.3226776         1.13452887E-04
   18.4494705         1.23022342E-04
   18.5762634         1.32791480E-04
   18.7030544         1.42709381E-04
   18.8298473         1.52725173E-04
   18.9566402         1.62789278E-04
   19.0834332         1.72854678E-04
   19.2102261         1.82878197E-04
   19.3370190         1.92821622E-04
   19.4638119         2.02652591E-04
   19.5906048         2.12345505E-04
   19.7173958         2.21881841E-04
   19.8441887         2.31250553E-04
   19.9709816         2.40448266E-04
   20.0977745         2.49478442E-04
   20.2245674         2.58351531E-04
   20.3513603         2.67083553E-04
   20.4781532         2.75695609E-04
   20.6049442         2.84212321E-04
   20.7317371         2.92660319E-04
   20.8585300         3.01067688E-04
   20.9853230         3.09461291E-04
   21.1121159         3.17866652E-04
   21.2389088         3.26305948E-04
   21.3657017         3.34797165E-04
   21.4924946         3.43353400E-04
   21.6192856         3.51982249E-04
   21.7460785         3.60685459E-04
   21.8728714         3.69459100E-04
   21.9996643         3.78294033E-04
   22.1264572         3.87176144E-04
   22.2532501         3.96087591E-04
   22.3800430         4.05007799E-04
   22.5068340         4.13914415E-04
   22.6336269         4.22784680E-04
   22.7604198         4.31596738E-04
   22.8872128         4.40330536E-04
   23.0140057         4.48969309E-04
   23.1407986         4.57499846E-04
   23.2675915         4.65913938E-04
   23.3943844         4.74208005E-04
   23.5211754         4.82383912E-04
   23.6479683         4.90448903E-04
   23.7747612         4.98415204E-04
   23.9015541         5.06299955E-04
   24.0283470         5.14124404E-04
   24.1551399         5.21913928E-04
   24.2819328         5.29696757E-04
   24.4087238         5.37503802E-04
   24.5355167         5.45367831E-04
   24.6623096         5.53323189E-04
   24.7891026         5.61404740E-04
   24.9158955         5.69647586E-04
   25.0426884         5.78087056E-04
   25.1694813         5.86757378E-04
   25.2962742         5.95691905E-04
   25.4230652         6.04922534E-04
   25.5498581         6.14478951E-04
   25.6766510         6.24387874E-04
   25.8034439         6.34673052E-04
   25.9302368         6.45353575E-04
   26.0570297         6.56443299E-04
   26.1838226         6.67949615E-04
   26.3106136         6.79871766E-04
   26.4374065         6.92200148E-04
   26.5641994         7.04913808E-04
   26.6909924         7.17979565E-04
   26.8177853         7.31350388E-04
   26.9445782         7.44962948E-04
   27.0713711         7.58737791E-04
   27.1981640         7.72576488E-04
   27.3249550         7.86362041E-04
   27.4517479         7.99957663E-04
   27.5785408         8.13206600E-04
   27.7053337         8.25933414E-04
   27.8321266         8.37943284E-04
   27.9589195         8.49024509E-04
   28.0857124         8.58949905E-04
   28.2125034         8.67479888E-04
   28.3392963         8.74363468E-04
   28.4660892         8.79344181E-04
   28.5928822         8.82161083E-04
   28.7196751         8.82553984E-04
   28.8464680         8.80267238E-04
   28.9732609         8.75053462E-04
   29.1000538         8.66677787E-04
   29.2268448         8.54921062E-04
   29.3536377         8.39584915E-04
   29.4804306         8.20493558E-04
   29.6072235         7.97498215E-04
   29.7340164         7.70478044E-04
   29.8608093         7.39344512E-04
   29.9876022         7.04041333E-04
   30.1143932         6.64546737E-04
   30.2411861         6.20874111E-04
   30.3679790         5.73072466E-04
   30.4947720         5.21226204E-04
   30.6215649         4.65455378E-04
   30.7483578         4.05914383E-04
   30.8751507         3.42791551E-04
   31.0019417         2.76307575E-04
   31.1287346         2.06714292E-04
   31.2555275         1.34292495E-04
   31.3823204         5.93508121E-05
   31.5091133        -1.77769834E-05
   31.6359062        -9.67337473E-05
   31.7626991        -1.77141410E-04
   31.8894920        -2.58603308E-04
   32.0162849        -3.40706756E-04
   32.1430779        -4.23025806E-04
   32.2698708        -5.05123753E-04
   32.3966637        -5.86556445E-04
   32.5234528        -6.66874810E-04
   32.6502457        -7.45628728E-04
   32.7770386        -8.22369475E-04
   32.9038315        -8.96653917E-04
   33.0306244        -9.68048116E-04
   33.1574173        -1.03613024E-03
   33.2842102        -1.10049476E-03
   33.4110031        -1.16075692E-03
   33.5377960        -1.21655525E-03
   33.6645889        -1.26755598E-03
   33.7913818        -1.31345657E-03
   33.9181747        -1.35398877E-03
   34.0449677        -1.38892222E-03
   34.1717606        -1.41806656E-03
   34.2985535        -1.44127454E-03
   34.4253426        -1.45844312E-03
   34.5521355        -1.46951585E-03
   34.6789284        -1.47448271E-03
   34.8057213        -1.47338107E-03
   34.9325142        -1.46629510E-03
   35.0593071        -1.45335426E-03
   35.1861000        -1.43473316E-03
   35.3128929        -1.41064753E-03
   35.4396858        -1.38135254E-03
   35.5664787        -1.34713913E-03
   35.6932716        -1.30833068E-03
   35.8200645        -1.26527762E-03
   35.9468575        -1.21835433E-03
   36.0736504        -1.16795325E-03
   36.2004433        -1.11448125E-03
   36.3272324        -1.05835323E-03
   36.4540253        -9.99988057E-04
   36.5808182        -9.39804479E-04
   36.7076111        -8.78215069E-04
   36.8344040        -8.15622916E-04
   36.9611969        -7.52418302E-04
   37.0879898        -6.88974222E-04
   37.2147827        -6.25644519E-04
   37.3415756        -5.62760630E-04
   37.4683685        -5.00630646E-04
   37.5951614        -4.39537456E-04
   37.7219543        -3.79738602E-04
   37.8487473        -3.21465806E-04
   37.9755402        -2.64925475E-04
   38.1023293        -2.10299491E-04
   38.2291222        -1.57746195E-04
   38.3559151        -1.07401960E-04
   38.4827080        -5.93828408E-05
   38.6095009        -1.37858997E-05
   38.7362938         2.93088360E-05
   38.8630867         6.98366930E-05
   38.9898796         1.07747146E-04
   39.1166725         1.43002486E-04
   39.2434654         1.75576715E-04
   39.3702583         2.05455231E-04
   39.4970512         2.32633916E-04
   39.6238441         2.57119798E-04
   39.7506371         2.78930645E-04
   39.8774300         2.98095780E-04
   40.0042191         3.14656529E-04
   40.1310120         3.28667142E-04
   40.2578049         3.40195314E-04
   40.3845978         3.49322858E-04
   40.5113907         3.56146338E-04
   40.6381836         3.60776874E-04
   40.7649765         3.63340339E-04
   40.8917694         3.63976578E-04
   41.0185623         3.62838298E-04
   41.1453552         3.60089412E-04
   41.2721481         3.55903001E-04
   41.3989410         3.50458984E-04
   41.5257339         3.43940570E-04
   41.6525269         3.36531142E-04
   41.7793198         3.28410766E-04
   41.9061089         3.19752144E-04
   42.0329018         3.10716656E-04
   42.1596947         3.01451364E-04
   42.2864876         2.92084878E-04
   42.4132805         2.82724999E-04
   42.5400734         2.73456331E-04
   42.6668663         2.64338421E-04
   42.7936592         2.55405292E-04
   42.9204521         2.46665237E-04
   43.0472450         2.38102191E-04
   43.1740379         2.29677331E-04
   43.3008308         2.21332026E-04
   43.4276237         2.12991377E-04
   43.5544167         2.04568714E-04
   43.6812096         1.95970089E-04
   43.8079987         1.87099795E-04
   43.9347916         1.77865557E-04
   44.0615845         1.68184168E-04
   44.1883774         1.57986433E-04
   44.3151703         1.47221945E-04
   44.4419632         1.35863433E-04
   44.5687561         1.23909544E-04
   44.6955490         1.11387970E-04
   44.8223419         9.83563223E-05
   44.9491348         8.49025892E-05
   45.0759277         7.11442772E-05
   45.2027206         5.72265562E-05
   45.3295135         4.33192108E-05
   45.4563065         2.96128273E-05
   45.5830994         1.63140048E-05
   45.7098885         3.64016023E-06
   45.8366814        -8.18637000E-06
   45.9634743        -1.89442999E-05
   46.0902672        -2.84195557E-05
   46.2170601        -3.64111111E-05
   46.3438530        -4.27367522E-05
   46.4706459        -4.72380962E-05
   46.5974388        -4.97852343E-05
   46.7242317        -5.02803778E-05
   46.8510246        -4.86608114E-05
   46.9778175        -4.49009422E-05
   47.1046104        -3.90134228E-05
   47.2314034        -3.10493742E-05
   47.3581963        -2.10976050E-05
   47.4849892        -9.28336976E-06
   47.6117783         4.23419579E-06
   47.7385712         1.92646603E-05
   47.8653641         3.55899683E-05
   47.9921570         5.29682366E-05
   48.1189499         7.11382163E-05
   48.2457428         8.98237267E-05
   48.3725357         1.08738583E-04
   48.4993286         1.27591527E-04
   48.6261215         1.46091072E-04
   48.7529144         1.63950681E-04
   48.8797073         1.80893388E-04
   49.0065002         1.96656678E-04
   49.1332932         2.10996805E-04
   49.2600861         2.23693089E-04
   49.3868790         2.34551393E-04
   49.5136681         2.43407732E-04
   49.6404610         2.50131008E-04
   49.7672539         2.54624872E-04
   49.8940468         2.56829720E-04
   50.0208397         2.56723288E-04
   50.1476326         2.54320883E-04
   50.2744255         2.49674893E-04
   50.4012184         2.42873502E-04
   50.5280113         2.34038773E-04
   50.6548042         2.23324023E-04
   50.7815971         2.10910599E-04
   50.9083900         1.97004265E-04
   51.0351830         1.81830983E-04
   51.1619759         1.65632591E-04
   51.2887688         1.48661871E-04
   51.4155579         1.31177876E-04
   51.5423508         1.13440961E-04
   51.6691437         9.57081429E-05
   51.7959366         7.82282586E-05
   51.9227295         6.12379154E-05
   52.0495224         4.49574582E-05
   52.1763153         2.95875270E-05
   52.3031082         1.53062083E-05
   52.4299011         2.26659267E-06
   52.5566940        -9.40475911E-06
   52.6834869        -1.96090350E-05
   52.8102798        -2.82754427E-05
   52.9370728        -3.53611249E-05
   53.0638657        -4.08503474E-05
   53.1906586        -4.47532002E-05
   53.3174477        -4.71039057E-05
   53.4442406        -4.79585542E-05
   53.5710335        -4.73928849E-05
   53.6978264        -4.54994297E-05
   53.8246193        -4.23849669E-05
   53.9514122        -3.81677237E-05
   54.0782051        -3.29745635E-05
   54.2049980        -2.69385873E-05
   54.3317909        -2.01965595E-05
   54.4585838        -1.28868232E-05
   54.5853767        -5.14733574E-06
   54.7121696         2.88612796E-06
   54.8389626         1.10813844E-05
   54.9657555         1.93112610E-05
   55.0925484         2.74546237E-05
   55.2193375         3.53975629E-05
   55.3461304         4.30341788E-05
   55.4729233         5.02675357E-05
   55.5997162         5.70105403E-05
   55.7265091         6.31866351E-05
   55.8533020         6.87306456E-05
   55.9800949         7.35894428E-05
   56.1068878         7.77227251E-05
   56.2336807         8.11033460E-05
   56.3604736         8.37178741E-05
   56.4872665         8.55666294E-05
   56.6140594         8.66637565E-05
   56.7408524         8.70368167E-05
   56.8676453         8.67261842E-05
   56.9944382         8.57841296E-05
   57.1212273         8.42736190E-05
   57.2480202         8.22667571E-05
   57.3748131         7.98430483E-05
   57.5016060         7.70873230E-05
   57.6283989         7.40877149E-05
   57.7551918         7.09333181E-05
   57.8819847         6.77120697E-05
   58.0087776         6.45085020E-05
   58.1355705         6.14017554E-05
   58.2623634         5.84639020E-05
   58.3891563         5.57581916E-05
   58.5159492         5.33382627E-05
   58.6427422         5.12471779E-05
   58.7695351         4.95170862E-05
   58.8963280         4.81695351E-05
   59.0231171         4.72157044E-05
   59.1499100         4.66574857E-05
   59.2767029         4.64885379E-05
   59.4034958         4.66957281E-05
   59.5302887         4.72608408E-05
   59.6570816         4.81621100E-05
   59.7838745         4.93758816E-05
   59.9106674         5.08782687E-05
   60.0374603         5.26462245E-05
   60.1642532         5.46587835E-05
   60.2910461         5.68975847E-05
   60.4178391         5.93471923E-05
   60.5446320         6.19948769E-05
   60.6714249         6.48300920E-05
   60.7982178         6.78432334E-05
   60.9250069         7.10245076E-05
   61.0517998         7.43621567E-05
   61.1785927         7.78405156E-05
   61.3053856         8.14381929E-05
   61.4321785         8.51261066E-05
   61.5589714         8.88656941E-05
   61.6857643         9.26076100E-05
   61.8125572         9.62907216E-05
   61.9393501         9.98414471E-05
   62.0661430         1.03174156E-04
   62.1929359         1.06191786E-04
   62.3197289         1.08787499E-04
   62.4465218         1.10846726E-04
   62.5733147         1.12250193E-04
   62.7001076         1.12877147E-04
   62.8268967         1.12609458E-04
   62.9536896         1.11335619E-04
   63.0804825         1.08955341E-04
   63.2072754         1.05383850E-04
   63.3340683         1.00556244E-04
   63.4608612         9.44313360E-05
   63.5876541         8.69951109E-05
   63.7144470         7.82634452E-05
   63.8412399         6.82840473E-05
   63.9680328         5.71374803E-05
   64.0948257         4.49371873E-05
   64.2216187         3.18285602E-05
   64.3484116         1.79868275E-05
   64.4752045         3.61406774E-06
   64.6019974        -1.10647279E-05
   64.7287903        -2.58062828E-05
   64.8555832        -4.03545564E-05
   64.9823761        -5.44466166E-05
   65.1091690        -6.78186625E-05
   65.2359619        -8.02124705E-05
   65.3627548        -9.13815456E-05
   65.4895477        -1.01097037E-04
   65.6163330        -1.09153050E-04
   65.7431259        -1.15371753E-04
   65.8699188        -1.19607183E-04
   65.9967117        -1.21748482E-04
   66.1235046        -1.21722078E-04
   66.2502975        -1.19493016E-04
   66.3770905        -1.15065042E-04
   66.5038834        -1.08480112E-04
   66.6306763        -9.98165051E-05
   66.7574692        -8.91867312E-05
   66.8842621        -7.67342935E-05
   67.0110550        -6.26301335E-05
   67.1378479        -4.70685591E-05
   67.2646408        -3.02629869E-05
   67.3914337        -1.24415628E-05
   67.5182266         6.15733370E-06
   67.6450195         2.52893005E-05
   67.7718124         4.47080274E-05
   67.8986053         6.41690349E-05
   68.0253983         8.34329985E-05
   68.1521912         1.02268881E-04
   68.2789841         1.20456272E-04
   68.4057770         1.37787705E-04
   68.5325699         1.54070382E-04
   68.6593628         1.69127554E-04
   68.7861557         1.82799733E-04
   68.9129486         1.94945576E-04
   69.0397415         2.05442659E-04
   69.1665344         2.14187865E-04
   69.2933273         2.21098206E-04
   69.4201126         2.26111122E-04
   69.5469055         2.29184792E-04
   69.6736984         2.30298800E-04
   69.8004913         2.29454527E-04
   69.9272842         2.26675140E-04
   70.0540771         2.22006143E-04
   70.1808701         2.15515291E-04
   70.3076630         2.07292367E-04
   70.4344559         1.97448826E-04
   70.5612488         1.86116929E-04
   70.6880417         1.73448629E-04
   70.8148346         1.59613861E-04
   70.9416275         1.44798687E-04
   71.0684204         1.29202774E-04
   71.1952133         1.13036520E-04
   71.3220062         9.65177533E-05
   71.4487991         7.98683468E-05
   71.5755920         6.33104646E-05
   71.7023849         4.70624436E-05
   71.8291779         3.13352684E-05
   71.9559708         1.63285058E-05
   72.0827637         2.22687868E-06
   72.2095566        -1.08030372E-05
   72.3363495        -2.26154298E-05
   72.4631424        -3.30876865E-05
   72.5899353        -4.21219847E-05
   72.7167282        -4.96462853E-05
   72.8435211        -5.56148407E-05
   72.9703140        -6.00079657E-05
   73.0971069        -6.28314156E-05
   73.2238922        -6.41150255E-05
   73.3506851        -6.39112623E-05
   73.4774780        -6.22931984E-05
   73.6042709        -5.93523691E-05
   73.7310638        -5.51964840E-05
   73.8578568        -4.99470989E-05
   73.9846497        -4.37370509E-05
   74.1114426        -3.67084067E-05
   74.2382355        -2.90098396E-05
   74.3650284        -2.07947796E-05
   74.4918213        -1.22189776E-05
   74.6186142        -3.43882584E-06
   74.7454071         5.39084567E-06
   74.8722000         1.41185692E-05
   74.9989929         2.25979747E-05
   75.1257858         3.06898110E-05
   75.2525787         3.82635626E-05
   75.3793716         4.51991800E-05
   75.5061646         5.13889390E-05
   75.6329575         5.67388997E-05
   75.7597504         6.11703435E-05
   75.8865433         6.46213666E-05
   76.0133362         6.70478621E-05
   76.1401291         6.84244951E-05
   76.2669220         6.87454085E-05
   76.3937149         6.80245066E-05
   76.5205078         6.62955572E-05
   76.6473007         6.36118275E-05
   76.7740936         6.00452804E-05
   76.9008865         5.56856467E-05
   77.0276718         5.06388278E-05
   77.1544647         4.50252373E-05
   77.2812576         3.89776724E-05
   77.4080505         3.26390218E-05
   77.5348434         2.61596197E-05
   77.6616364         1.96945584E-05
   77.7884293         1.34007732E-05
   77.9152222         7.43410465E-06
   78.0420151         1.94615632E-06
   78.1688080        -2.91872379E-06
   78.2956009        -7.02635953E-06
   78.4223938        -1.02557797E-05
   78.5491867        -1.25018787E-05
   78.6759796        -1.36779599E-05
   78.8027725        -1.37180150E-05
   78.9295654        -1.25785518E-05
   79.0563583        -1.02402182E-05
   79.1831512        -6.70869758E-06
   79.3099442        -2.01531725E-06
   79.4367371         3.78306640E-06
   79.5635300         1.06045372E-05
   79.6903229         1.83433986E-05
   79.8171158         2.68719687E-05
   79.9439087         3.60429040E-05
   80.0707016         4.56921443E-05
   80.1974945         5.56422674E-05
   80.3242874         6.57062556E-05
   80.4510803         7.56917943E-05
   80.5778732         8.54054670E-05
   80.7046585         9.46575237E-05
   80.8314514         1.03266284E-04
   80.9582443         1.11062589E-04
   81.0850372         1.17894146E-04
   81.2118301         1.23629201E-04
   81.3386230         1.28160231E-04
   81.4654160         1.31406516E-04
   81.5922089         1.33316469E-04
   81.7190018         1.33868947E-04
   81.8457947         1.33074078E-04
   81.9725876         1.30972912E-04
   82.0993805         1.27636595E-04
   82.2261734         1.23164282E-04
   82.3529663         1.17681011E-04
   82.4797592         1.11333895E-04
   82.6065521         1.04288752E-04
   82.7333450         9.67253800E-05
   82.8601379         8.88329232E-05
   82.9869308         8.08045734E-05
   83.1137238         7.28327068E-05
   83.2405167         6.51033188E-05
   83.3673096         5.77913816E-05
   83.4941025         5.10558166E-05
   83.6208954         4.50354200E-05
   83.7476883         3.98451266E-05
   83.8744812         3.55730554E-05
   84.0012741         3.22783271E-05
   84.1280670         2.99898584E-05
   84.2548599         2.87059138E-05
   84.3816528         2.83947502E-05
   84.5084381         2.89959826E-05
   84.6352310         3.04229725E-05
   84.7620239         3.25659967E-05
   84.8888168         3.52959578E-05
   85.0156097         3.84686864E-05
   85.1424026         4.19296885E-05
   85.2691956         4.55190311E-05
   85.3959885         4.90763196E-05
   85.5227814         5.24453862E-05
   85.6495743         5.54790204E-05
   85.7763672         5.80429769E-05
   85.9031601         6.00195344E-05
   86.0299530         6.13104785E-05
   86.1567459         6.18391423E-05
   86.2835388         6.15521421E-05
   86.4103317         6.04196503E-05
   86.5371246         5.84356640E-05
   86.6639175         5.56170853E-05
   86.7907104         5.20022877E-05
   86.9175034         4.76492605E-05
   87.0442963         4.26332081E-05
   87.1710892         3.70437483E-05
   87.2978821         3.09821007E-05
   87.4246750         2.45579649E-05
   87.5514679         1.78865466E-05
   87.6782608         1.10855717E-05
   87.8050537         4.27247824E-06
   87.9318466        -2.43807176E-06
   88.0586395        -8.93636479E-06
   88.1854324        -1.51196846E-05
   88.3122177        -2.08937690E-05
   88.4390106        -2.61740151E-05
   88.5658035        -3.08861599E-05
   88.6925964        -3.49670299E-05
   88.8193893        -3.83643383E-05
   88.9461823        -4.10367684E-05
   89.0729752        -4.29535248E-05
   89.1997681        -4.40938384E-05
   89.3265610        -4.44463112E-05
   89.4533539        -4.40081931E-05
   89.5801468        -4.27848208E-05
   89.7069397        -4.07888147E-05
   89.8337326        -3.80397905E-05
   89.9605255        -3.45637709E-05
   90.0873184        -3.03930356E-05
   90.2141113        -2.55660798E-05
   90.3409042        -2.01275670E-05
   90.4676971        -1.41285063E-05
   90.5944901        -7.62647232E-06
   90.7212830        -6.85737007E-07
   90.8480759         6.62250659E-06
   90.9748688         1.42203153E-05
   91.1016617         2.20230122E-05
   91.2284546         2.99397216E-05
   91.3552475         3.78741825E-05
   91.4820404         4.57257302E-05
   91.6088333         5.33907914E-05
   91.7356262         6.07645670E-05
   91.8624191         6.77430726E-05
   91.9892120         7.42252887E-05
   92.1159973         8.01158094E-05
   92.2427902         8.53271340E-05
   92.3695831         8.97822538E-05
   92.4963760         9.34169802E-05
   92.6231689         9.61819023E-05
   92.7499619         9.80444311E-05
   92.8767548         9.89900218E-05
   93.0035477         9.90230910E-05
   93.1303406         9.81672929E-05
   93.2571335         9.64654100E-05
   93.3839264         9.39784586E-05
   93.5107193         9.07844078E-05
   93.6375122         8.69763753E-05
   93.7643051         8.26602700E-05
   93.8910980         7.79522525E-05
   94.0178909         7.29758103E-05
   94.1446838         6.78587458E-05
   94.2714767         6.27301270E-05
   94.3982697         5.77171268E-05
   94.5250626         5.29421704E-05
   94.6518555         4.85202581E-05
   94.7786484         4.45564183E-05
   94.9054413         4.11436959E-05
   95.0322342         3.83613660E-05
   95.1590271         3.62735227E-05
   95.2858200         3.49281145E-05
   95.4126129         3.43565298E-05
   95.5394058         3.45730114E-05
   95.6661987         3.55751727E-05
   95.7929916         3.73443181E-05
   95.9197769         3.98460434E-05
   96.0465698         4.30315376E-05
   96.1733627         4.68386206E-05
   96.3001556         5.11931285E-05
   96.4269485         5.60105545E-05
   96.5537415         6.11976793E-05
   96.6805344         6.66543201E-05
   96.8073273         7.22750337E-05
   96.9341202         7.79510519E-05
   97.0609131         8.35720566E-05
   97.1877060         8.90279698E-05
   97.3144989         9.42106490E-05
   97.4412918         9.90157496E-05
   97.5680847         1.03344195E-04
   97.6948776         1.07103813E-04
   97.8216705         1.10210742E-04
   97.9484634         1.12590758E-04
   98.0752563         1.14180701E-04