  -4.50000000         0.00000000    
  -4.37320757         0.00000000    
  -4.24641466         0.00000000    
  -4.11962223         0.00000000    
  -3.99282932        -2.71012424E-25
  -3.86603665         4.42091485E-22
  -3.73924398         2.59980564E-21
  -3.61245155         5.59208870E-21
  -3.48565888        -1.85250430E-21
  -3.35886621        -4.32850399E-20
  -3.23207355        -1.18877021E-19
  -3.10528088        -1.02767963E-19
  -2.97848821         4.02221691E-19
  -2.85169554         2.12551379E-18
  -2.72490287         5.88767142E-18
  -2.59811020         1.18625839E-17
  -2.47131753         1.83746113E-17
  -2.34452486         2.07045822E-17
  -2.21773219         1.09091987E-17
  -2.09093952        -2.00394562E-17
  -1.96414697        -7.68975949E-17
  -1.83735430        -1.52243359E-16
  -1.71056163        -2.19342054E-16
  -1.58376896        -2.31767802E-16
  -1.45697629        -1.36270422E-16
  -1.33018374         9.86105500E-17
  -1.20339108         4.44755666E-16
  -1.07659841         7.85282128E-16
 -0.949805737         9.18502834E-16
 -0.823013067         6.14429441E-16
 -0.696220458        -2.77065112E-16
 -0.569427788        -1.69756298E-15
 -0.442635119        -3.28844469E-15
 -0.315842479        -4.39971952E-15
 -0.189049825        -4.23813528E-15
  -6.22571707E-02    -2.14228841E-15
   6.45354837E-02     2.08591774E-15
  0.191328138         7.90425142E-15
  0.318120778         1.39208781E-14
  0.444913447         1.80281002E-14
  0.571706116         1.77900094E-14
  0.698498726         1.10266402E-14
  0.825291395        -3.51646512E-15
  0.952084064        -2.55562766E-14
   1.07887673        -5.28729994E-14
   1.20566940        -8.12724386E-14
   1.33246195        -1.05027288E-13
   1.45925462        -1.17843899E-13
   1.58604729        -1.14281997E-13
   1.71283996        -9.14008249E-14
   1.83963263        -5.02606244E-14
   1.96642530         3.16726244E-15
   2.09321785         5.80763329E-14
   2.22001052         1.00090949E-13
   2.34680319         1.13638123E-13
   2.47359586         8.50494398E-14
   2.60038853         5.82577360E-15
   2.72718120        -1.24526203E-13
   2.85397387        -2.96543118E-13
   2.98076653        -4.89989180E-13
   3.10755920        -6.74269722E-13
   3.23435187        -8.10138198E-13
   3.36114454        -8.52866768E-13
   3.48793697        -7.57165218E-13
   3.61472964        -4.84081471E-13
   3.74152231        -9.75314308E-15
   3.86831498         6.64797156E-13
   3.99510765         1.50447385E-12
   4.12190056         2.43383157E-12
   4.24869299         3.33614581E-12
   4.37548542         4.05966016E-12
   4.50227833         4.43148730E-12
   4.62907076         4.27790442E-12
   4.75586367         3.44814216E-12
   4.88265610         1.83773287E-12
   5.00944901        -5.92633581E-13
   5.13624144        -3.80603665E-12
   5.26303434        -7.68786337E-12
   5.38982677        -1.20543887E-11
   5.51661968        -1.66705035E-11
   5.64341211        -2.12748603E-11
   5.77020502        -2.56103749E-11
   5.89699745        -2.94571000E-11
   6.02379036        -3.26640208E-11
   6.15058279        -3.51750226E-11
   6.27737522        -3.70436459E-11
   6.40416813        -3.84313796E-11
   6.53096056        -3.95865285E-11
   6.65775347        -4.08045368E-11
   6.78454590        -4.23762865E-11
   6.91133881        -4.45363399E-11
   7.03813124        -4.74266841E-11
   7.16492414        -5.10919154E-11
   7.29171658        -5.55172054E-11
   7.41850948        -6.07131290E-11
   7.54530191        -6.68420597E-11
   7.67209482        -7.43746037E-11
   7.79888725        -8.42613132E-11
   7.92567968        -9.81103948E-11
   8.05247211        -1.18372437E-10
   8.17926502        -1.48545384E-10
   8.30605793        -1.93424513E-10
   8.43285084        -2.59423316E-10
   8.55964279        -3.54979574E-10
   8.68643570        -4.91033880E-10
   8.81322861        -6.81522283E-10
   8.94002151        -9.43775502E-10
   9.06681347        -1.29865430E-09
   9.19360638        -1.77020898E-09
   9.32039928        -2.38461517E-09
   9.44719219        -3.16814197E-09
   9.57398415        -4.14394163E-09
   9.70077705        -5.32753308E-09
   9.82756996        -6.72095890E-09
   9.95436192        -8.30577651E-09
   10.0811548        -1.00352029E-08
   10.2079477        -1.18259447E-08
   10.3347406        -1.35504044E-08
   10.4615326        -1.50301638E-08
   10.5883255        -1.60316951E-08
   10.7151184        -1.62653144E-08
   10.8419113        -1.53884052E-08
   10.9687033        -1.30136906E-08
   11.0954962        -8.72326300E-09
   11.2222891        -2.08863615E-09
   11.3490820         7.30327665E-09
   11.4758739         1.98188950E-08
   11.6026669         3.57425947E-08
   11.7294598         5.52392443E-08
   11.8562517         7.83171430E-08
   11.9830446         1.04795028E-07
   12.1098375         1.34277158E-07
   12.2366304         1.66141291E-07
   12.3634224         1.99545298E-07
   12.4902153         2.33457328E-07
   12.6170082         2.66715944E-07
   12.7438011         2.98124718E-07
   12.8705931         3.26585678E-07
   12.9973860         3.51275077E-07
   13.1241789         3.71861546E-07
   13.2509708         3.88766978E-07
   13.3777637         4.03464696E-07
   13.5045567         4.18810686E-07
   13.6313496         4.39396331E-07
   13.7581415         4.71913381E-07
   13.8849344         5.25513315E-07
   14.0117273         6.12147630E-07
   14.1385202         7.46869659E-07
   14.2653122         9.48077229E-07
   14.3921051         1.23768075E-06
   14.5188980         1.64117694E-06
   14.6456909         2.18761193E-06
   14.7724829         2.90941921E-06
   14.8992758         3.84212808E-06
   15.0260687         5.02393959E-06
   15.1528606         6.49515641E-06
   15.2796535         8.29749206E-06
   15.4064465         1.04732526E-05
   15.5332394         1.30644312E-05
   15.6600313         1.61117005E-05
   15.7868242         1.96533638E-05
   15.9136171         2.37242803E-05
   16.0404091         2.83547670E-05
   16.1672020         3.35695513E-05
   16.2939949         3.93867849E-05
   16.4207878         4.58171089E-05
   16.5475807         5.28628516E-05
   16.6743736         6.05173154E-05
   16.8011646         6.87642532E-05
   16.9279575         7.75774315E-05
   17.0547504         8.69204014E-05
   17.1815434         9.67464148E-05
   17.3083363         1.06998443E-04
   17.4351292         1.17609437E-04
   17.5619221         1.28502812E-04
   17.6887150         1.39592827E-04
   17.8155060         1.50785374E-04
   17.9422989         1.61978925E-04
   18.0690918         1.73065433E-04
   18.1958847         1.83931552E-04
   18.3226776         1.94460139E-04
   18.4494705         2.04531549E-04
   18.5762634         2.14025538E-04
   18.7030544         2.22823001E-04
   18.8298473         2.30808029E-04
   18.9566402         2.37870059E-04
   19.0834332         2.43906135E-04
   19.2102261         2.48823111E-04
   19.3370190         2.52540136E-04
   19.4638119         2.54990824E-04
   19.5906048         2.56125408E-04
   19.7173958         2.55912688E-04
   19.8441887         2.54341809E-04
   19.9709816         2.51423597E-04
   20.0977745         2.47191172E-04
   20.2245674         2.41700705E-04
   20.3513603         2.35030981E-04
   20.4781532         2.27282537E-04
   20.6049442         2.18576446E-04
   20.7317371         2.09051854E-04
   20.8585300         1.98863752E-04
   20.9853230         1.88179081E-04
   21.1121159         1.77173715E-04
   21.2389088         1.66027778E-04
   21.3657017         1.54921770E-04
   21.4924946         1.44031830E-04
   21.6192856         1.33525551E-04
   21.7460785         1.23557722E-04
   21.8728714         1.14266652E-04
   21.9996643         1.05770865E-04
   22.1264572         9.81664198E-05
   22.2532501         9.15249257E-05
   22.3800430         8.58927451E-05
   22.5068340         8.12904691E-05
   22.6336269         7.77135647E-05
   22.7604198         7.51337429E-05
   22.8872128         7.35012873E-05
   23.0140057         7.27477236E-05
   23.1407986         7.27889856E-05
   23.2675915         7.35295471E-05
   23.3943844         7.48659077E-05
   23.5211754         7.66908634E-05
   23.6479683         7.88975158E-05
   23.7747612         8.13827064E-05
   23.9015541         8.40505527E-05
   24.0283470         8.68150601E-05
   24.1551399         8.96027268E-05
   24.2819328         9.23537009E-05
   24.4087238         9.50230533E-05
   24.5355167         9.75808871E-05
   24.6623096         1.00012279E-04
   24.7891026         1.02315833E-04
   24.9158955         1.04502629E-04
   25.0426884         1.06594562E-04
   25.1694813         1.08621913E-04
   25.2962742         1.10620989E-04
   25.4230652         1.12632253E-04
   25.5498581         1.14697279E-04
   25.6766510         1.16856914E-04
   25.8034439         1.19149328E-04
   25.9302368         1.21607773E-04
   26.0570297         1.24259401E-04
   26.1838226         1.27124134E-04
   26.3106136         1.30213375E-04
   26.4374065         1.33530106E-04
   26.5641994         1.37068258E-04
   26.6909924         1.40812961E-04
   26.8177853         1.44741207E-04
   26.9445782         1.48821724E-04
   27.0713711         1.53016634E-04
   27.1981640         1.57281844E-04
   27.3249550         1.61568823E-04
   27.4517479         1.65825084E-04
   27.5785408         1.69995968E-04
   27.7053337         1.74026281E-04
   27.8321266         1.77861381E-04
   27.9589195         1.81448690E-04
   28.0857124         1.84739270E-04
   28.2125034         1.87689744E-04
   28.3392963         1.90262857E-04
   28.4660892         1.92430118E-04
   28.5928822         1.94171764E-04
   28.7196751         1.95478700E-04
   28.8464680         1.96353154E-04
   28.9732609         1.96809517E-04
   29.1000538         1.96874564E-04
   29.2268448         1.96587440E-04
   29.3536377         1.95999848E-04
   29.4804306         1.95175104E-04
   29.6072235         1.94187625E-04
   29.7340164         1.93120577E-04
   29.8608093         1.92065389E-04
   29.9876022         1.91118903E-04
   30.1143932         1.90381557E-04
   30.2411861         1.89954531E-04
   30.3679790         1.89937404E-04
   30.4947720         1.90425053E-04
   30.6215649         1.91505897E-04
   30.7483578         1.93258398E-04
   30.8751507         1.95749453E-04
   31.0019417         1.99032205E-04
   31.1287346         2.03144169E-04
   31.2555275         2.08106299E-04
   31.3823204         2.13922132E-04
   31.5091133         2.20577451E-04
   31.6359062         2.28040415E-04
   31.7626991         2.36262407E-04
   31.8894920         2.45179341E-04
   32.0162849         2.54712708E-04
   32.1430779         2.64772418E-04
   32.2698708         2.75257888E-04
   32.3966637         2.86061346E-04
   32.5234528         2.97069899E-04
   32.6502457         3.08167917E-04
   32.7770386         3.19239887E-04
   32.9038315         3.30172712E-04
   33.0306244         3.40857951E-04
   33.1574173         3.51193245E-04
   33.2842102         3.61084851E-04
   33.4110031         3.70448397E-04
   33.5377960         3.79209669E-04
   33.6645889         3.87306238E-04
   33.7913818         3.94686329E-04
   33.9181747         4.01310332E-04
   34.0449677         4.07148618E-04
   34.1717606         4.12183057E-04
   34.2985535         4.16404364E-04
   34.4253426         4.19812655E-04
   34.5521355         4.22415062E-04
   34.6789284         4.24225378E-04
   34.8057213         4.25262348E-04
   34.9325142         4.25548875E-04
   35.0593071         4.25111270E-04
   35.1861000         4.23977646E-04
   35.3128929         4.22176498E-04
   35.4396858         4.19737684E-04
   35.5664787         4.16689814E-04
   35.6932716         4.13061818E-04
   35.8200645         4.08880413E-04
   35.9468575         4.04171442E-04
   36.0736504         3.98959528E-04
   36.2004433         3.93267488E-04
   36.3272324         3.87117034E-04
   36.4540253         3.80528509E-04
   36.5808182         3.73521238E-04
   36.7076111         3.66113847E-04
   36.8344040         3.58324382E-04
   36.9611969         3.50170332E-04
   37.0879898         3.41669045E-04
   37.2147827         3.32837924E-04
   37.3415756         3.23694258E-04
   37.4683685         3.14255944E-04
   37.5951614         3.04540910E-04
   37.7219543         2.94568104E-04
   37.8487473         2.84356938E-04
   37.9755402         2.73927522E-04
   38.1023293         2.63300986E-04
   38.2291222         2.52498983E-04
   38.3559151         2.41544229E-04
   38.4827080         2.30460471E-04
   38.6095009         2.19272260E-04
   38.7362938         2.08005265E-04
   38.8630867         1.96686364E-04
   38.9898796         1.85343612E-04
   39.1166725         1.74006273E-04
   39.2434654         1.62705095E-04
   39.3702583         1.51472341E-04
   39.4970512         1.40341843E-04
   39.6238441         1.29349341E-04
   39.7506371         1.18532509E-04
   39.8774300         1.07931191E-04
   40.0042191         9.75875955E-05
   40.1310120         8.75465557E-05
   40.2578049         7.78554604E-05
   40.3845978         6.85642663E-05
   40.5113907         5.97258186E-05
   40.6381836         5.13950363E-05
   40.7649765         4.36291702E-05
   40.8917694         3.64870502E-05
   41.0185623         3.00284355E-05
   41.1453552         2.43131144E-05
   41.2721481         1.94001350E-05
   41.3989410         1.53463861E-05
   41.5257339         1.22053480E-05
   41.6525269         1.00253646E-05
   41.7793198         8.84851306E-06
   41.9061089         8.70835356E-06
   42.0329018         9.62851755E-06
   42.1596947         1.16211177E-05
   42.2864876         1.46849789E-05
   42.4132805         1.88045487E-05
   42.5400734         2.39485180E-05
   42.6668663         3.00690263E-05
   42.7936592         3.71013411E-05
   42.9204521         4.49634063E-05
   43.0472450         5.35564614E-05
   43.1740379         6.27658155E-05
   43.3008308         7.24620186E-05
   43.4276237         8.25026436E-05
   43.5544167         9.27346118E-05
   43.6812096         1.02996550E-04
   43.8079987         1.13121940E-04
   43.9347916         1.22942307E-04
   44.0615845         1.32290821E-04
   44.1883774         1.41005774E-04
   44.3151703         1.48934210E-04
   44.4419632         1.55935704E-04
   44.5687561         1.61885444E-04
   44.6955490         1.66677652E-04
   44.8223419         1.70228115E-04
   44.9491348         1.72476532E-04
   45.0759277         1.73388224E-04
   45.2027206         1.72955348E-04
   45.3295135         1.71197375E-04
   45.4563065         1.68161103E-04
   45.5830994         1.63919860E-04
   45.7098885         1.58572133E-04
   45.8366814         1.52239605E-04
   45.9634743         1.45064623E-04
   46.0902672         1.37207026E-04
   46.2170601         1.28840824E-04
   46.3438530         1.20150398E-04
   46.4706459         1.11326364E-04
   46.5974388         1.02561651E-04
   46.7242317         9.40471509E-05
   46.8510246         8.59677239E-05
   46.9778175         7.84982694E-05
   47.1046104         7.17999574E-05
   47.2314034         6.60168880E-05
   47.3581963         6.12730146E-05
   47.4849892         5.76697748E-05
   47.6117783         5.52837773E-05
   47.7385712         5.41657319E-05
   47.8653641         5.43393544E-05
   47.9921570         5.58013053E-05
   48.1189499         5.85213747E-05
   48.2457428         6.24435343E-05
   48.3725357         6.74872717E-05
   48.4993286         7.35497088E-05
   48.6261215         8.05079617E-05
   48.7529144         8.82219028E-05
   48.8797073         9.65374129E-05
   49.0065002         1.05289793E-04
   49.1332932         1.14307346E-04
   49.2600861         1.23415302E-04
   49.3868790         1.32439236E-04
   49.5136681         1.41209035E-04
   49.6404610         1.49562169E-04
   49.7672539         1.57346891E-04
   49.8940468         1.64425335E-04
   50.0208397         1.70676023E-04
   50.1476326         1.75996058E-04
   50.2744255         1.80303003E-04
   50.4012184         1.83536147E-04
   50.5280113         1.85657453E-04
   50.6548042         1.86651960E-04
   50.7815971         1.86527424E-04
   50.9083900         1.85314144E-04
   51.0351830         1.83063399E-04
   51.1619759         1.79846451E-04
   51.2887688         1.75752255E-04
   51.4155579         1.70885440E-04
   51.5423508         1.65363876E-04
   51.6691437         1.59315867E-04
   51.7959366         1.52877255E-04
   51.9227295         1.46188366E-04
   52.0495224         1.39390831E-04
   52.1763153         1.32624642E-04
   52.3031082         1.26024999E-04
   52.4299011         1.19719436E-04
   52.5566940         1.13825241E-04
   52.6834869         1.08447108E-04
   52.8102798         1.03675127E-04
   52.9370728         9.95832452E-05
   53.0638657         9.62280756E-05
   53.1906586         9.36481592E-05
   53.3174477         9.18637816E-05
   53.4442406         9.08769580E-05
   53.5710335         9.06722780E-05
   53.6978264         9.12177638E-05
   53.8246193         9.24664491E-05
   53.9514122         9.43581617E-05
   54.0782051         9.68212917E-05
   54.2049980         9.97754032E-05
   54.3317909         1.03133156E-04
   54.4585838         1.06802960E-04
   54.5853767         1.10691166E-04
   54.7121696         1.14704351E-04
   54.8389626         1.18751377E-04
   54.9657555         1.22745201E-04
   55.0925484         1.26604602E-04
   55.2193375         1.30255386E-04
   55.3461304         1.33631605E-04
   55.4729233         1.36676332E-04
   55.5997162         1.39342024E-04
   55.7265091         1.41590877E-04
   55.8533020         1.43394762E-04
   55.9800949         1.44734862E-04
   56.1068878         1.45601283E-04
   56.2336807         1.45992453E-04
   56.3604736         1.45914411E-04
   56.4872665         1.45379934E-04
   56.6140594         1.44407808E-04
   56.7408524         1.43022044E-04
   56.8676453         1.41250930E-04
   56.9944382         1.39126452E-04
   57.1212273         1.36683477E-04
   57.2480202         1.33959111E-04
   57.3748131         1.30992077E-04
   57.5016060         1.27822306E-04
   57.6283989         1.24490252E-04
   57.7551918         1.21036748E-04
   57.8819847         1.17502481E-04
   58.0087776         1.13927781E-04
   58.1355705         1.10352325E-04
   58.2623634         1.06814914E-04
   58.3891563         1.03353035E-04
   58.5159492         1.00002588E-04
   58.6427422         9.67975066E-05
   58.7695351         9.37691366E-05
   58.8963280         9.09458322E-05
   59.0231171         8.83524262E-05
   59.1499100         8.60096261E-05
   59.2767029         8.39335917E-05
   59.4034958         8.21354115E-05
   59.5302887         8.06206008E-05
   59.6570816         7.93888466E-05
   59.7838745         7.84336735E-05
   59.9106674         7.77423411E-05
   60.0374603         7.72961430E-05
   60.1642532         7.70705446E-05
   60.2910461         7.70360639E-05
   60.4178391         7.71588238E-05
   60.5446320         7.74020518E-05
   60.6714249         7.77271343E-05
   60.7982178         7.80952178E-05
   60.9250069         7.84687945E-05
   61.0517998         7.88131802E-05
   61.1785927         7.90982158E-05
   61.3053856         7.92996652E-05
   61.4321785         7.94005391E-05
   61.5589714         7.93920626E-05
   61.6857643         7.92745341E-05
   61.8125572         7.90576814E-05
   61.9393501         7.87604658E-05
   62.0661430         7.84107760E-05
   62.1929359         7.80443588E-05
   62.3197289         7.77034074E-05
   62.4465218         7.74348300E-05
   62.5733147         7.72882049E-05
   62.7001076         7.73135107E-05
   62.8268967         7.75587614E-05
   62.9536896         7.80675837E-05
   63.0804825         7.88771213E-05
   63.2072754         8.00158450E-05
   63.3340683         8.15019011E-05
   63.4608612         8.33417944E-05
   63.5876541         8.55294566E-05
   63.7144470         8.80459993E-05
   63.8412399         9.08600196E-05
   63.9680328         9.39284073E-05
   64.0948257         9.71978734E-05
   64.2216187         1.00606674E-04
   64.3484116         1.04087201E-04
   64.4752045         1.07568289E-04
   64.6019974         1.10978341E-04
   64.7287903         1.14247865E-04
   64.8555832         1.17312462E-04
   64.9823761         1.20115234E-04
   65.1091690         1.22609024E-04
   65.2359619         1.24758284E-04
   65.3627548         1.26540486E-04
   65.4895477         1.27946652E-04
   65.6163330         1.28981643E-04
   65.7431259         1.29663676E-04
   65.8699188         1.30023196E-04
   65.9967117         1.30101267E-04
   66.1235046         1.29947381E-04
   66.2502975         1.29617198E-04
   66.3770905         1.29169857E-04
   66.5038834         1.28665328E-04
   66.6306763         1.28161657E-04
   66.7574692         1.27712759E-04
   66.8842621         1.27366089E-04
   67.0110550         1.27161009E-04
   67.1378479         1.27127336E-04
   67.2646408         1.27284613E-04
   67.3914337         1.27641862E-04
   67.5182266         1.28197687E-04
   67.6450195         1.28941276E-04
   67.7718124         1.29853361E-04
   67.8986053         1.30907734E-04
   68.0253983         1.32073052E-04
   68.1521912         1.33314548E-04
   68.2789841         1.34595917E-04
   68.4057770         1.35880793E-04
   68.5325699         1.37134499E-04
   68.6593628         1.38324918E-04
   68.7861557         1.39423530E-04
   68.9129486         1.40405828E-04
   69.0397415         1.41251614E-04
   69.1665344         1.41944489E-04
   69.2933273         1.42471690E-04
   69.4201126         1.42823148E-04
   69.5469055         1.42990495E-04
   69.6736984         1.42966150E-04
   69.8004913         1.42742545E-04
   69.9272842         1.42310979E-04
   70.0540771         1.41661192E-04
   70.1808701         1.40781034E-04
   70.3076630         1.39656462E-04
   70.4344559         1.38271833E-04
   70.5612488         1.36610484E-04
   70.6880417         1.34655944E-04
   70.8148346         1.32392743E-04
   70.9416275         1.29808192E-04
   71.0684204         1.26893647E-04
   71.1952133         1.23646081E-04
   71.3220062         1.20069497E-04
   71.4487991         1.16176314E-04
   71.5755920         1.11988367E-04
   71.7023849         1.07537591E-04
   71.8291779         1.02866281E-04
   71.9559708         9.80270124E-05
   72.0827637         9.30818496E-05
   72.2095566         8.81013111E-05
   72.3363495         8.31626312E-05
   72.4631424         7.83480573E-05
   72.5899353         7.37423543E-05
   72.7167282         6.94303599E-05
   72.8435211         6.54943287E-05
   72.9703140         6.20111168E-05
   73.0971069         5.90496893E-05
   73.2238922         5.66683229E-05
   73.3506851         5.49125689E-05
   73.4774780         5.38132845E-05
   73.6042709         5.33852835E-05
   73.7310638         5.36264779E-05
   73.8578568         5.45178445E-05
   73.9846497         5.60235821E-05
   74.1114426         5.80925189E-05
   74.2382355         6.06593312E-05
   74.3650284         6.36471523E-05
   74.4918213         6.69697401E-05
   74.6186142         7.05348866E-05
   74.7454071         7.42473203E-05
   74.8722000         7.80121190E-05
   74.9989929         8.17380715E-05
   75.1257858         8.53407109E-05
   75.2525787         8.87453207E-05
   75.3793716         9.18891747E-05
   75.5061646         9.47234585E-05
   75.6329575         9.72145062E-05
   75.7597504         9.93442809E-05
   75.8865433         1.01110345E-04
   76.0133362         1.02524915E-04
   76.1401291         1.03613667E-04
   76.2669220         1.04413673E-04
   76.3937149         1.04971048E-04
   76.5205078         1.05338324E-04
   76.6473007         1.05571366E-04
   76.7740936         1.05726591E-04
   76.9008865         1.05858060E-04
   77.0276718         1.06014624E-04
   77.1544647         1.06237851E-04
   77.2812576         1.06560045E-04
   77.4080505         1.07002998E-04
   77.5348434         1.07577158E-04
   77.6616364         1.08281783E-04
   77.7884293         1.09105240E-04
   77.9152222         1.10026042E-04
   78.0420151         1.11014371E-04
   78.1688080         1.12034031E-04
   78.2956009         1.13044400E-04
   78.4223938         1.14002964E-04
   78.5491867         1.14867558E-04
   78.6759796         1.15598727E-04
   78.8027725         1.16161835E-04
   78.9295654         1.16528885E-04
   79.0563583         1.16680138E-04
   79.1831512         1.16605064E-04
   79.3099442         1.16303061E-04
   79.4367371         1.15783521E-04
   79.5635300         1.15065617E-04
   79.6903229         1.14177587E-04
   79.8171158         1.13155533E-04
   79.9439087         1.12042209E-04
   80.0707016         1.10885165E-04
   80.1974945         1.09735054E-04
   80.3242874         1.08643602E-04
   80.4510803         1.07661734E-04
   80.5778732         1.06837630E-04
   80.7046585         1.06215019E-04
   80.8314514         1.05831517E-04
   80.9582443         1.05717561E-04
   81.0850372         1.05895153E-04
   81.2118301         1.06377323E-04
   81.3386230         1.07167791E-04
   81.4654160         1.08260836E-04
   81.5922089         1.09641689E-04
   81.7190018         1.11287067E-04
   81.8457947         1.13166134E-04
   81.9725876         1.15241484E-04
   82.0993805         1.17470663E-04
   82.2261734         1.19807431E-04
   82.3529663         1.22203477E-04
   82.4797592         1.24610175E-04
   82.6065521         1.26979750E-04
   82.7333450         1.29267384E-04
   82.8601379         1.31432229E-04
   82.9869308         1.33438778E-04
   83.1137238         1.35257651E-04
   83.2405167         1.36866263E-04
   83.3673096         1.38249234E-04
   83.4941025         1.39398282E-04
   83.6208954         1.40311764E-04
   83.7476883         1.40994147E-04
   83.8744812         1.41455137E-04
   84.0012741         1.41708355E-04
   84.1280670         1.41770026E-04
   84.2548599         1.41657452E-04
   84.3816528         1.41387616E-04
   84.5084381         1.40975535E-04
   84.6352310         1.40432981E-04
   84.7620239         1.39767290E-04
   84.8888168         1.38980526E-04
   85.0156097         1.38068921E-04
   85.1424026         1.37022755E-04
   85.2691956         1.35826645E-04
   85.3959885         1.34460250E-04
   85.5227814         1.32899222E-04
   85.6495743         1.31116802E-04
   85.7763672         1.29085311E-04
   85.9031601         1.26778250E-04
   86.0299530         1.24172089E-04
   86.1567459         1.21248508E-04
   86.2835388         1.17996155E-04
   86.4103317         1.14412651E-04
   86.5371246         1.10505818E-04
   86.6639175         1.06294858E-04
   86.7907104         1.01810794E-04
   86.9175034         9.70967740E-05
   87.0442963         9.22071340E-05
   87.1710892         8.72066157E-05
   87.2978821         8.21687936E-05
   87.4246750         7.71739506E-05
   87.5514679         7.23066551E-05
   87.6782608         6.76532873E-05
   87.8050537         6.32991505E-05
   87.9318466         5.93256082E-05
   88.0586395         5.58071770E-05
   88.1854324         5.28092169E-05
   88.3122177         5.03855372E-05
   88.4390106         4.85767378E-05
   88.5658035         4.74087537E-05
   88.6925964         4.68926046E-05
   88.8193893         4.70238774E-05
   88.9461823         4.77835856E-05
   89.0729752         4.91391656E-05
   89.1997681         5.10460668E-05
   89.3265610         5.34496612E-05
   89.4533539         5.62874739E-05
   89.5801468         5.94916673E-05
   89.7069397         6.29912902E-05
   89.8337326         6.67149579E-05
   89.9605255         7.05927596E-05
   90.0873184         7.45583529E-05
   90.2141113         7.85506272E-05
   90.3409042         8.25146708E-05
   90.4676971         8.64024987E-05
   90.5944901         9.01735111E-05
   90.7212830         9.37940713E-05
   90.8480759         9.72373309E-05
   90.9748688         1.00482241E-04
   91.1016617         1.03512866E-04
   91.2284546         1.06317304E-04
   91.3552475         1.08886794E-04
   91.4820404         1.11214926E-04
   91.6088333         1.13296890E-04
   91.7356262         1.15129056E-04
   91.8624191         1.16708885E-04
   91.9892120         1.18034994E-04
   92.1159973         1.19107470E-04
   92.2427902         1.19928663E-04
   92.3695831         1.20503813E-04
   92.4963760         1.20841993E-04
   92.6231689         1.20956800E-04
   92.7499619         1.20867247E-04
   92.8767548         1.20598110E-04
   93.0035477         1.20180208E-04
   93.1303406         1.19650125E-04
   93.2571335         1.19049815E-04
   93.3839264         1.18425516E-04
   93.5107193         1.17826552E-04
   93.6375122         1.17303345E-04
   93.7643051         1.16905663E-04
   93.8910980         1.16680152E-04
   94.0178909         1.16668234E-04
   94.1446838         1.16903662E-04
   94.2714767         1.17410505E-04
   94.3982697         1.18201213E-04
   94.5250626         1.19275239E-04
   94.6518555         1.20618366E-04
   94.7786484         1.22202138E-04
   94.9054413         1.23984239E-04
   95.0322342         1.25909617E-04
   95.1590271         1.27912092E-04
   95.2858200         1.29916647E-04
   95.4126129         1.31842084E-04
   95.5394058         1.33604510E-04
   95.6661987         1.35120543E-04
   95.7929916         1.36311064E-04
   95.9197769         1.37104813E-04
   96.0465698         1.37441515E-04
   96.1733627         1.37274925E-04
   96.3001556         1.36575269E-04
   96.4269485         1.35331022E-04
   96.5537415         1.33549824E-04
   96.6805344         1.31258945E-04
   96.8073273         1.28504631E-04
   96.9341202         1.25350780E-04
   97.0609131         1.21876612E-04
   97.1877060         1.18174103E-04
   97.3144989         1.14344315E-04
   97.4412918         1.10493704E-04
   97.5680847         1.06729793E-04
   97.6948776         1.03157370E-04
   97.8216705         9.98742398E-05
   97.9484634         9.69676039E-05
   98.0752563         9.45108841E-05