  -4.50000000         0.00000000    
  -4.37320757         0.00000000    
  -4.24641466         0.00000000    
  -4.11962223         0.00000000    
  -3.99282932         1.38581656E-23
  -3.86603665        -4.67306559E-22
  -3.73924398        -5.00739156E-21
  -3.61245155        -2.43511940E-20
  -3.48565888        -7.36021949E-20
  -3.35886621        -1.44653584E-19
  -3.23207355        -1.45031645E-19
  -3.10528088         1.61620881E-19
  -2.97848821         1.11967602E-18
  -2.85169554         2.95422717E-18
  -2.72490287         5.37622069E-18
  -2.59811020         7.24548923E-18
  -2.47131753         6.61233044E-18
  -2.34452486         1.23878248E-18
  -2.21773219        -1.08019374E-17
  -2.09093952        -3.12056665E-17
  -1.96414697        -6.25535751E-17
  -1.83735430        -1.09466177E-16
  -1.71056163        -1.77263151E-16
  -1.58376896        -2.65516718E-16
  -1.45697629        -3.56666781E-16
  -1.33018374        -4.05164473E-16
  -1.20339108        -3.37530506E-16
  -1.07659841        -7.38178493E-17
 -0.949805737         4.27002199E-16
 -0.823013067         1.11024928E-15
 -0.696220458         1.78557468E-15
 -0.569427788         2.13880626E-15
 -0.442635119         1.82021345E-15
 -0.315842479         6.05049557E-16
 -0.189049825        -1.41681729E-15
  -6.22571707E-02    -3.69894756E-15
   6.45354837E-02    -5.23117257E-15
  0.191328138        -4.72942244E-15
  0.318120778        -1.02439318E-15
  0.444913447         6.43013839E-15
  0.571706116         1.70833213E-14
  0.698498726         2.90380818E-14
  0.825291395         3.91910625E-14
  0.952084064         4.38295132E-14
   1.07887673         3.96068506E-14
   1.20566940         2.46657671E-14
   1.33246195        -4.24351251E-16
   1.45925462        -3.22527073E-14
   1.58604729        -6.48972317E-14
   1.71283996        -9.10125382E-14
   1.83963263        -1.03447307E-13
   1.96642530        -9.69765650E-14
   2.09321785        -6.96755750E-14
   2.22001052        -2.35677075E-14
   2.34680319         3.55814384E-14
   2.47359586         9.91630552E-14
   2.60038853         1.56938386E-13
   2.72718120         1.98140712E-13
   2.85397387         2.12205457E-13
   2.98076653         1.89188468E-13
   3.10755920         1.20276293E-13
   3.23435187        -1.02538399E-15
   3.36114454        -1.76549801E-13
   3.48793697        -3.99955703E-13
   3.61472964        -6.52704290E-13
   3.74152231        -9.00892913E-13
   3.86831498        -1.09469963E-12
   3.99510765        -1.17205193E-12
   4.12190056        -1.06733079E-12
   4.24869299        -7.24562012E-13
   4.37548542        -1.12994202E-13
   4.50227833         7.58361039E-13
   4.62907076         1.83118668E-12
   4.75586367         2.99677102E-12
   4.88265610         4.10518277E-12
   5.00944901         4.98412379E-12
   5.13624144         5.46428831E-12
   5.26303434         5.40605451E-12
   5.38982677         4.72159768E-12
   5.51661968         3.38735398E-12
   5.64341211         1.44406319E-12
   5.77020502        -1.01500947E-12
   5.89699745        -3.86393044E-12
   6.02379036        -6.96593868E-12
   6.15058279        -1.01908490E-11
   6.27737522        -1.34234559E-11
   6.40416813        -1.65620365E-11
   6.53096056        -1.95109623E-11
   6.65775347        -2.21753657E-11
   6.78454590        -2.44678427E-11
   6.91133881        -2.63359855E-11
   7.03813124        -2.78141971E-11
   7.16492414        -2.90948619E-11
   7.29171658        -3.06042761E-11
   7.41850948        -3.30598639E-11
   7.54530191        -3.74796930E-11
   7.67209482        -4.51174202E-11
   7.79888725        -5.73030200E-11
   7.92567968        -7.51855175E-11
   8.05247211        -9.93930424E-11
   8.17926502        -1.29645364E-10
   8.30605793        -1.64368380E-10
   8.43285084        -2.00367500E-10
   8.55964279        -2.32610056E-10
   8.68643570        -2.54153032E-10
   8.81322861        -2.56227317E-10
   8.94002151        -2.28467412E-10
   9.06681347        -1.59260841E-10
   9.19360638        -3.61892252E-11
   9.32039928         1.53443244E-10
   9.44719219         4.21964241E-10
   9.57398415         7.80485510E-10
   9.70077705         1.23772403E-09
   9.82756996         1.79833293E-09
   9.95436192         2.46059506E-09
   10.0811548         3.21339866E-09
   10.2079477         4.03253742E-09
   10.3347406         4.87654095E-09
   10.4615326         5.68247538E-09
   10.5883255         6.36232711E-09
   10.7151184         6.80078394E-09
   10.8419113         6.85527635E-09
   10.9687033         6.35914477E-09
   11.0954962         5.12860598E-09
   11.2222891         2.97387026E-09
   11.3490820        -2.85652224E-10
   11.4758739        -4.80268936E-09
   11.6026669        -1.06811635E-08
   11.7294598        -1.79548039E-08
   11.8562517        -2.65674736E-08
   11.9830446        -3.63580845E-08
   12.1098375        -4.70529820E-08
   12.2366304        -5.82689239E-08
   12.3634224        -6.95299391E-08
   12.4902153        -8.03009570E-08
   12.6170082        -9.00409560E-08
   12.7438011        -9.82779511E-08
   12.8705931        -1.04707617E-07
   12.9973860        -1.09316588E-07
   13.1241789        -1.12530010E-07
   13.2509708        -1.15383244E-07
   13.3777637        -1.19713860E-07
   13.5045567        -1.28371354E-07
   13.6313496        -1.45437681E-07
   13.7581415        -1.76452232E-07
   13.8849344        -2.28631848E-07
   14.0117273        -3.11075951E-07
   14.1385202        -4.34945633E-07
   14.2653122        -6.13605152E-07
   14.3921051        -8.62714444E-07
   14.5188980        -1.20026300E-06
   14.6456909        -1.64653466E-06
   14.7724829        -2.22399512E-06
   14.8992758        -2.95710311E-06
   15.0260687        -3.87203772E-06
   15.1528606        -4.99634370E-06
   15.2796535        -6.35850529E-06
   15.4064465        -7.98745077E-06
   15.5332394        -9.91200250E-06
   15.6600313        -1.21602779E-05
   15.7868242        -1.47590627E-05
   15.9136171        -1.77331858E-05
   16.0404091        -2.11048718E-05
   16.1672020        -2.48931301E-05
   16.2939949        -2.91131782E-05
   16.4207878        -3.37758756E-05
   16.5475807        -3.88872722E-05
   16.6743736        -4.44481811E-05
   16.8011646        -5.04537820E-05
   16.9279575        -5.68933719E-05
   17.0547504        -6.37502089E-05
   17.1815434        -7.10013046E-05
   17.3083363        -7.86174496E-05
   17.4351292        -8.65632828E-05
   17.5619221        -9.47974186E-05
   17.6887150        -1.03272832E-04
   17.8155060        -1.11937094E-04
   17.9422989        -1.20733057E-04
   18.0690918        -1.29599401E-04
   18.1958847        -1.38471485E-04
   18.3226776        -1.47282204E-04
   18.4494705        -1.55963047E-04
   18.5762634        -1.64445242E-04
   18.7030544        -1.72660817E-04
   18.8298473        -1.80544084E-04
   18.9566402        -1.88032645E-04
   19.0834332        -1.95068744E-04
   19.2102261        -2.01600516E-04
   19.3370190        -2.07582882E-04
   19.4638119        -2.12978513E-04
   19.5906048        -2.17758716E-04
   19.7173958        -2.21903785E-04
   19.8441887        -2.25403404E-04
   19.9709816        -2.28256627E-04
   20.0977745        -2.30471967E-04
   20.2245674        -2.32066566E-04
   20.3513603        -2.33065904E-04
   20.4781532        -2.33502797E-04
   20.6049442        -2.33416547E-04
   20.7317371        -2.32851642E-04
   20.8585300        -2.31856684E-04
   20.9853230        -2.30483522E-04
   21.1121159        -2.28785662E-04
   21.2389088        -2.26817778E-04
   21.3657017        -2.24634277E-04
   21.4924946        -2.22289105E-04
   21.6192856        -2.19835027E-04
   21.7460785        -2.17323002E-04
   21.8728714        -2.14802611E-04
   21.9996643        -2.12321436E-04
   22.1264572        -2.09925463E-04
   22.2532501        -2.07659410E-04
   22.3800430        -2.05566350E-04
   22.5068340        -2.03688498E-04
   22.6336269        -2.02066891E-04
   22.7604198        -2.00741415E-04
   22.8872128        -1.99750677E-04
   23.0140057        -1.99131449E-04
   23.1407986        -1.98918278E-04
   23.2675915        -1.99142392E-04
   23.3943844        -1.99830814E-04
   23.5211754        -2.01005576E-04
   23.6479683        -2.02681840E-04
   23.7747612        -2.04867407E-04
   23.9015541        -2.07561083E-04
   24.0283470        -2.10751910E-04
   24.1551399        -2.14418193E-04
   24.2819328        -2.18527246E-04
   24.4087238        -2.23035022E-04
   24.5355167        -2.27886630E-04
   24.6623096        -2.33016865E-04
   24.7891026        -2.38351640E-04
   24.9158955        -2.43809205E-04
   25.0426884        -2.49302742E-04
   25.1694813        -2.54742190E-04
   25.2962742        -2.60037545E-04
   25.4230652        -2.65100854E-04
   25.5498581        -2.69850047E-04
   25.6766510        -2.74211110E-04
   25.8034439        -2.78121151E-04
   25.9302368        -2.81530869E-04
   26.0570297        -2.84406648E-04
   26.1838226        -2.86732015E-04
   26.3106136        -2.88509240E-04
   26.4374065        -2.89759366E-04
   26.5641994        -2.90522410E-04
   26.6909924        -2.90856668E-04
   26.8177853        -2.90837430E-04
   26.9445782        -2.90554919E-04
   27.0713711        -2.90112512E-04
   27.1981640        -2.89623247E-04
   27.3249550        -2.89207179E-04
   27.4517479        -2.88988260E-04
   27.5785408        -2.89090385E-04
   27.7053337        -2.89634976E-04
   27.8321266        -2.90736702E-04
   27.9589195        -2.92501674E-04
   28.0857124        -2.95023987E-04
   28.2125034        -2.98384140E-04
   28.3392963        -3.02647299E-04
   28.4660892        -3.07861686E-04
   28.5928822        -3.14058008E-04
   28.7196751        -3.21249536E-04
   28.8464680        -3.29432223E-04
   28.9732609        -3.38585232E-04
   29.1000538        -3.48672096E-04
   29.2268448        -3.59641941E-04
   29.3536377        -3.71431408E-04
   29.4804306        -3.83966195E-04
   29.6072235        -3.97163152E-04
   29.7340164        -4.10932262E-04
   29.8608093        -4.25178499E-04
   29.9876022        -4.39804222E-04
   30.1143932        -4.54710593E-04
   30.2411861        -4.69799939E-04
   30.3679790        -4.84977354E-04
   30.4947720        -5.00151829E-04
   30.6215649        -5.15237683E-04
   30.7483578        -5.30156132E-04
   30.8751507        -5.44835988E-04
   31.0019417        -5.59213920E-04
   31.1287346        -5.73235797E-04
   31.2555275        -5.86856040E-04
   31.3823204        -6.00038155E-04
   31.5091133        -6.12754666E-04
   31.6359062        -6.24985667E-04
   31.7626991        -6.36719749E-04
   31.8894920        -6.47951441E-04
   32.0162849        -6.58681267E-04
   32.1430779        -6.68913475E-04
   32.2698708        -6.78655924E-04
   32.3966637        -6.87916821E-04
   32.5234528        -6.96703675E-04
   32.6502457        -7.05022132E-04
   32.7770386        -7.12873065E-04
   32.9038315        -7.20251177E-04
   33.0306244        -7.27143604E-04
   33.1574173        -7.33528112E-04
   33.2842102        -7.39371520E-04
   33.4110031        -7.44629593E-04
   33.5377960        -7.49245693E-04
   33.6645889        -7.53150845E-04
   33.7913818        -7.56264199E-04
   33.9181747        -7.58493959E-04
   34.0449677        -7.59738090E-04
   34.1717606        -7.59887742E-04
   34.2985535        -7.58827431E-04
   34.4253426        -7.56440044E-04
   34.5521355        -7.52608583E-04
   34.6789284        -7.47220183E-04
   34.8057213        -7.40170013E-04
   34.9325142        -7.31364416E-04
   35.0593071        -7.20725162E-04
   35.1861000        -7.08193111E-04
   35.3128929        -6.93730195E-04
   35.4396858        -6.77324075E-04
   35.5664787        -6.58988836E-04
   35.6932716        -6.38767728E-04
   35.8200645        -6.16733567E-04
   35.9468575        -5.92989265E-04
   36.0736504        -5.67667361E-04
   36.2004433        -5.40929206E-04
   36.3272324        -5.12962404E-04
   36.4540253        -4.83978918E-04
   36.5808182        -4.54211578E-04
   36.7076111        -4.23910475E-04
   36.8344040        -3.93338618E-04
   36.9611969        -3.62767489E-04
   37.0879898        -3.32472235E-04
   37.2147827        -3.02726519E-04
   37.3415756        -2.73797661E-04
   37.4683685        -2.45941657E-04
   37.5951614        -2.19398338E-04
   37.7219543        -1.94387190E-04
   37.8487473        -1.71103253E-04
   37.9755402        -1.49713625E-04
   38.1023293        -1.30354805E-04
   38.2291222        -1.13130358E-04
   38.3559151        -9.81095000E-05
   38.4827080        -8.53265374E-05
   38.6095009        -7.47806262E-05
   38.7362938        -6.64366671E-05
   38.8630867        -6.02266446E-05
   38.9898796        -5.60516564E-05
   39.1166725        -5.37843953E-05
   39.2434654        -5.32722697E-05
   39.3702583        -5.43407550E-05
   39.4970512        -5.67971838E-05
   39.6238441        -6.04346969E-05
   39.7506371        -6.50363436E-05
   39.8774300        -7.03793485E-05
   40.0042191        -7.62392083E-05
   40.1310120        -8.23939554E-05
   40.2578049        -8.86279013E-05
   40.3845978        -9.47357403E-05
   40.5113907        -1.00525700E-04
   40.6381836        -1.05823041E-04
   40.7649765        -1.10472713E-04
   40.8917694        -1.14341572E-04
   41.0185623        -1.17320495E-04
   41.1453552        -1.19325668E-04
   41.2721481        -1.20299243E-04
   41.3989410        -1.20209581E-04
   41.5257339        -1.19050994E-04
   41.6525269        -1.16842726E-04
   41.7793198        -1.13627531E-04
   41.9061089        -1.09469613E-04
   42.0329018        -1.04452316E-04
   42.1596947        -9.86754603E-05
   42.2864876        -9.22521867E-05
   42.4132805        -8.53059755E-05
   42.5400734        -7.79674374E-05
   42.6668663        -7.03711339E-05
   42.7936592        -6.26526598E-05
   42.9204521        -5.49459401E-05
   43.0472450        -4.73807268E-05
   43.1740379        -4.00807367E-05
   43.3008308        -3.31618503E-05
   43.4276237        -2.67309533E-05
   43.5544167        -2.08850633E-05
   43.6812096        -1.57108043E-05
   43.8079987        -1.12842527E-05
   43.9347916        -7.67089932E-06
   44.0615845        -4.92582558E-06
   44.1883774        -3.09396137E-06
   44.3151703        -2.21034475E-06
   44.4419632        -2.30029877E-06
   44.5687561        -3.37956931E-06
   44.6955490        -5.45426155E-06
   44.8223419        -8.52067569E-06
   44.9491348        -1.25650049E-05
   45.0759277        -1.75629084E-05
   45.2027206        -2.34790423E-05
   45.3295135        -3.02665558E-05
   45.4563065        -3.78667137E-05
   45.5830994        -4.62085554E-05
   45.7098885        -5.52088495E-05
   45.8366814        -6.47722045E-05
   45.9634743        -7.47917438E-05
   46.0902672        -8.51497607E-05
   46.2170601        -9.57192024E-05
   46.3438530        -1.06365282E-04
   46.4706459        -1.16947551E-04
   46.5974388        -1.27322404E-04
   46.7242317        -1.37345793E-04
   46.8510246        -1.46876060E-04
   46.9778175        -1.55777088E-04
   47.1046104        -1.63921519E-04
   47.2314034        -1.71193256E-04
   47.3581963        -1.77490729E-04
   47.4849892        -1.82729011E-04
   47.6117783        -1.86841979E-04
   47.7385712        -1.89783823E-04
   47.8653641        -1.91530227E-04
   47.9921570        -1.92078776E-04
   48.1189499        -1.91449086E-04
   48.2457428        -1.89682120E-04
   48.3725357        -1.86839112E-04
   48.4993286        -1.83000186E-04
   48.6261215        -1.78262228E-04
   48.7529144        -1.72736793E-04
   48.8797073        -1.66547383E-04
   49.0065002        -1.59826886E-04
   49.1332932        -1.52714681E-04
   49.2600861        -1.45353857E-04
   49.3868790        -1.37888419E-04
   49.5136681        -1.30460670E-04
   49.6404610        -1.23208796E-04
   49.7672539        -1.16264579E-04
   49.8940468        -1.09751498E-04
   50.0208397        -1.03783132E-04
   50.1476326        -9.84616054E-05
   50.2744255        -9.38768280E-05
   50.4012184        -9.01053718E-05
   50.5280113        -8.72100936E-05
   50.6548042        -8.52397352E-05
   50.7815971        -8.42286900E-05
   50.9083900        -8.41970032E-05
   51.0351830        -8.51503937E-05
   51.1619759        -8.70803560E-05
   51.2887688        -8.99644147E-05
   51.4155579        -9.37662771E-05
   51.5423508        -9.84362778E-05
   51.6691437        -1.03911698E-04
   51.7959366        -1.10117231E-04
   51.9227295        -1.16965755E-04
   52.0495224        -1.24358994E-04
   52.1763153        -1.32188739E-04
   52.3031082        -1.40337943E-04
   52.4299011        -1.48682448E-04
   52.5566940        -1.57092785E-04
   52.6834869        -1.65436213E-04
   52.8102798        -1.73579218E-04
   52.9370728        -1.81390133E-04
   53.0638657        -1.88741833E-04
   53.1906586        -1.95514716E-04
   53.3174477        -2.01599352E-04
   53.4442406        -2.06899436E-04
   53.5710335        -2.11333943E-04
   53.6978264        -2.14839602E-04
   53.8246193        -2.17372348E-04
   53.9514122        -2.18908492E-04
   54.0782051        -2.19445283E-04
   54.2049980        -2.19000867E-04
   54.3317909        -2.17613255E-04
   54.4585838        -2.15339300E-04
   54.5853767        -2.12252402E-04
   54.7121696        -2.08440106E-04
   54.8389626        -2.04001291E-04
   54.9657555        -1.99042683E-04
   55.0925484        -1.93675762E-04
   55.2193375        -1.88013291E-04
   55.3461304        -1.82165808E-04
   55.4729233        -1.76239046E-04
   55.5997162        -1.70330808E-04
   55.7265091        -1.64529003E-04
   55.8533020        -1.58909912E-04
   55.9800949        -1.53537199E-04
   56.1068878        -1.48461302E-04
   56.2336807        -1.43719677E-04
   56.3604736        -1.39337426E-04
   56.4872665        -1.35328606E-04
   56.6140594        -1.31697743E-04
   56.7408524        -1.28441810E-04
   56.8676453        -1.25552469E-04
   56.9944382        -1.23018137E-04
   57.1212273        -1.20826277E-04
   57.2480202        -1.18965378E-04
   57.3748131        -1.17426644E-04
   57.5016060        -1.16205294E-04
   57.6283989        -1.15301467E-04
   57.7551918        -1.14720555E-04
   57.8819847        -1.14473012E-04
   58.0087776        -1.14573719E-04
   58.1355705        -1.15040697E-04
   58.2623634        -1.15893687E-04
   58.3891563        -1.17152122E-04
   58.5159492        -1.18833152E-04
   58.6427422        -1.20949364E-04
   58.7695351        -1.23506747E-04
   58.8963280        -1.26502651E-04
   59.0231171        -1.29924199E-04
   59.1499100        -1.33747017E-04
   59.2767029        -1.37934432E-04
   59.4034958        -1.42437348E-04
   59.5302887        -1.47194587E-04
   59.6570816        -1.52133769E-04
   59.7838745        -1.57173054E-04
   59.9106674        -1.62223121E-04
   60.0374603        -1.67189733E-04
   60.1642532        -1.71976688E-04
   60.2910461        -1.76488931E-04
   60.4178391        -1.80635921E-04
   60.5446320        -1.84334669E-04
   60.6714249        -1.87513098E-04
   60.7982178        -1.90112594E-04
   60.9250069        -1.92090476E-04
   61.0517998        -1.93421714E-04
   61.1785927        -1.94100241E-04
   61.3053856        -1.94139255E-04
   61.4321785        -1.93571163E-04
   61.5589714        -1.92446634E-04
   61.6857643        -1.90832900E-04
   61.8125572        -1.88811580E-04
   61.9393501        -1.86476027E-04
   62.0661430        -1.83927856E-04
   62.1929359        -1.81273674E-04
   62.3197289        -1.78621369E-04
   62.4465218        -1.76076370E-04
   62.5733147        -1.73737993E-04
   62.7001076        -1.71696302E-04
   62.8268967        -1.70029016E-04
   62.9536896        -1.68799248E-04
   63.0804825        -1.68053521E-04
   63.2072754        -1.67820719E-04
   63.3340683        -1.68111743E-04
   63.4608612        -1.68919549E-04
   63.5876541        -1.70220403E-04
   63.7144470        -1.71975131E-04
   63.8412399        -1.74131579E-04
   63.9680328        -1.76627073E-04
   64.0948257        -1.79391209E-04
   64.2216187        -1.82349046E-04
   64.3484116        -1.85424200E-04
   64.4752045        -1.88541715E-04
   64.6019974        -1.91630868E-04
   64.7287903        -1.94627370E-04
   64.8555832        -1.97475456E-04
   64.9823761        -2.00129041E-04
   65.1091690        -2.02552517E-04
   65.2359619        -2.04721015E-04
   65.3627548        -2.06619879E-04
   65.4895477        -2.08243771E-04
   65.6163330        -2.09595179E-04
   65.7431259        -2.10682658E-04
   65.8699188        -2.11518825E-04
   65.9967117        -2.12117797E-04
   66.1235046        -2.12493367E-04
   66.2502975        -2.12656349E-04
   66.3770905        -2.12613057E-04
   66.5038834        -2.12363462E-04
   66.6306763        -2.11900187E-04
   66.7574692        -2.11207909E-04
   66.8842621        -2.10263475E-04
   67.0110550        -2.09036138E-04
   67.1378479        -2.07489255E-04
   67.2646408        -2.05581615E-04
   67.3914337        -2.03269781E-04
   67.5182266        -2.00510578E-04
   67.6450195        -1.97263944E-04
   67.7718124        -1.93495565E-04
   67.8986053        -1.89179933E-04
   68.0253983        -1.84302655E-04
   68.1521912        -1.78863091E-04
   68.2789841        -1.72875836E-04
   68.4057770        -1.66372338E-04
   68.5325699        -1.59401388E-04
   68.6593628        -1.52029432E-04
   68.7861557        -1.44339923E-04
   68.9129486        -1.36432005E-04
   69.0397415        -1.28418789E-04
   69.1665344        -1.20424847E-04
   69.2933273        -1.12583490E-04
   69.4201126        -1.05033279E-04
   69.5469055        -9.79146498E-05
   69.6736984        -9.13662079E-05
   69.8004913        -8.55209582E-05
   69.9272842        -8.05028030E-05
   70.0540771        -7.64231809E-05
   70.1808701        -7.33780980E-05
   70.3076630        -7.14456255E-05
   70.4344559        -7.06837818E-05
   70.5612488        -7.11292305E-05
   70.6880417        -7.27963125E-05
   70.8148346        -7.56769514E-05
   70.9416275        -7.97409957E-05
   71.0684204        -8.49371427E-05
   71.1952133        -9.11945390E-05
   71.3220062        -9.84246362E-05
   71.4487991        -1.06523628E-04
   71.5755920        -1.15375064E-04
   71.7023849        -1.24852741E-04
   71.8291779        -1.34823611E-04
   71.9559708        -1.45150771E-04
   72.0827637        -1.55696354E-04
   72.2095566        -1.66324346E-04
   72.3363495        -1.76902831E-04
   72.4631424        -1.87306243E-04
   72.5899353        -1.97417263E-04
   72.7167282        -2.07127945E-04
   72.8435211        -2.16340864E-04
   72.9703140        -2.24969684E-04
   73.0971069        -2.32939346E-04
   73.2238922        -2.40186011E-04
   73.3506851        -2.46656506E-04
   73.4774780        -2.52308149E-04
   73.6042709        -2.57107342E-04
   73.7310638        -2.61029461E-04
   73.8578568        -2.64057337E-04
   73.9846497        -2.66180898E-04
   74.1114426        -2.67396157E-04
   74.2382355        -2.67704658E-04
   74.3650284        -2.67113122E-04
   74.4918213        -2.65633018E-04
   74.6186142        -2.63280497E-04
   74.7454071        -2.60076864E-04
   74.8722000        -2.56048603E-04
   74.9989929        -2.51228135E-04
   75.1257858        -2.45654432E-04
   75.2525787        -2.39373650E-04
   75.3793716        -2.32439721E-04
   75.5061646        -2.24915304E-04
   75.6329575        -2.16871806E-04
   75.7597504        -2.08389756E-04
   75.8865433        -1.99558592E-04
   76.0133362        -1.90476290E-04
   76.1401291        -1.81248397E-04
   76.2669220        -1.71986889E-04
   76.3937149        -1.62808385E-04
   76.5205078        -1.53832312E-04
   76.6473007        -1.45178667E-04
   76.7740936        -1.36965362E-04
   76.9008865        -1.29305714E-04
   77.0276718        -1.22305719E-04
   77.1544647        -1.16061405E-04
   77.2812576        -1.10656430E-04
   77.4080505        -1.06159743E-04
   77.5348434        -1.02623730E-04
   77.6616364        -1.00082754E-04
   77.7884293        -9.85523220E-05
   77.9152222        -9.80284167E-05
   78.0420151        -9.84878789E-05
   78.1688080        -9.98889591E-05
   78.2956009        -1.02172744E-04
   78.4223938        -1.05264786E-04
   78.5491867        -1.09077497E-04
   78.6759796        -1.13512702E-04
   78.8027725        -1.18464603E-04
   78.9295654        -1.23822785E-04
   79.0563583        -1.29475593E-04
   79.1831512        -1.35313050E-04
   79.3099442        -1.41230033E-04
   79.4367371        -1.47128856E-04
   79.5635300        -1.52921828E-04
   79.6903229        -1.58533090E-04
   79.8171158        -1.63900069E-04
   79.9439087        -1.68974409E-04
   80.0707016        -1.73722161E-04
   80.1974945        -1.78123591E-04
   80.3242874        -1.82172167E-04
   80.4510803        -1.85873258E-04
   80.5778732        -1.89242128E-04
   80.7046585        -1.92301770E-04
   80.8314514        -1.95080444E-04
   80.9582443        -1.97608853E-04
   81.0850372        -1.99917660E-04
   81.2118301        -2.02034818E-04
   81.3386230        -2.03983276E-04
   81.4654160        -2.05779099E-04
   81.5922089        -2.07429839E-04
   81.7190018        -2.08933488E-04
   81.8457947        -2.10278289E-04
   81.9725876        -2.11442632E-04
   82.0993805        -2.12396088E-04
   82.2261734        -2.13100371E-04
   82.3529663        -2.13511667E-04
   82.4797592        -2.13582418E-04
   82.6065521        -2.13264240E-04
   82.7333450        -2.12510582E-04
   82.8601379        -2.11279461E-04
   82.9869308        -2.09536534E-04
   83.1137238        -2.07257399E-04
   83.2405167        -2.04429991E-04
   83.3673096        -2.01056348E-04
   83.4941025        -1.97153873E-04
   83.6208954        -1.92755979E-04
   83.7476883        -1.87912272E-04
   83.8744812        -1.82687567E-04
   84.0012741        -1.77160924E-04
   84.1280670        -1.71423613E-04
   84.2548599        -1.65576799E-04
   84.3816528        -1.59728603E-04
   84.5084381        -1.53991190E-04
   84.6352310        -1.48477207E-04
   84.7620239        -1.43296667E-04
   84.8888168        -1.38553689E-04
   85.0156097        -1.34343383E-04
   85.1424026        -1.30749264E-04
   85.2691956        -1.27841093E-04
   85.3959885        -1.25673105E-04
   85.5227814        -1.24282888E-04
   85.6495743        -1.23690887E-04
   85.7763672        -1.23900318E-04
   85.9031601        -1.24897866E-04
   86.0299530        -1.26654661E-04
   86.1567459        -1.29127729E-04
   86.2835388        -1.32261775E-04
   86.4103317        -1.35991271E-04
   86.5371246        -1.40242541E-04
   86.6639175        -1.44936028E-04
   86.7907104        -1.49988424E-04
   86.9175034        -1.55314978E-04
   87.0442963        -1.60831274E-04
   87.1710892        -1.66454920E-04
   87.2978821        -1.72107335E-04
   87.4246750        -1.77714799E-04
   87.5514679        -1.83209399E-04
   87.6782608        -1.88529812E-04
   87.8050537        -1.93621599E-04
   87.9318466        -1.98437396E-04
   88.0586395        -2.02936615E-04
   88.1854324        -2.07085308E-04
   88.3122177        -2.10855535E-04
   88.4390106        -2.14224696E-04
   88.5658035        -2.17174849E-04
   88.6925964        -2.19692010E-04
   88.8193893        -2.21765309E-04
   88.9461823        -2.23386451E-04
   89.0729752        -2.24549105E-04
   89.1997681        -2.25248339E-04
   89.3265610        -2.25480675E-04
   89.4533539        -2.25243726E-04
   89.5801468        -2.24536401E-04
   89.7069397        -2.23359209E-04
   89.8337326        -2.21714581E-04
   89.9605255        -2.19607566E-04
   90.0873184        -2.17046530E-04
   90.2141113        -2.14043786E-04
   90.3409042        -2.10616505E-04
   90.4676971        -2.06787357E-04
   90.5944901        -2.02585376E-04
   90.7212830        -1.98046138E-04
   90.8480759        -1.93212327E-04
   90.9748688        -1.88133839E-04
   91.1016617        -1.82867545E-04
   91.2284546        -1.77476642E-04
   91.3552475        -1.72030253E-04
   91.4820404        -1.66602040E-04
   91.6088333        -1.61269039E-04
   91.7356262        -1.56110051E-04
   91.8624191        -1.51203974E-04
   91.9892120        -1.46627877E-04
   92.1159973        -1.42455261E-04
   92.2427902        -1.38754083E-04
   92.3695831        -1.35585244E-04
   92.4963760        -1.33000663E-04
   92.6231689        -1.31042179E-04
   92.7499619        -1.29740423E-04
   92.8767548        -1.29113934E-04
   93.0035477        -1.29168751E-04
   93.1303406        -1.29898384E-04
   93.2571335        -1.31283901E-04
   93.3839264        -1.33294743E-04
   93.5107193        -1.35889379E-04
   93.6375122        -1.39016673E-04
   93.7643051        -1.42617064E-04
   93.8910980        -1.46624137E-04
   94.0178909        -1.50966283E-04
   94.1446838        -1.55568167E-04
   94.2714767        -1.60352356E-04
   94.3982697        -1.65240825E-04
   94.5250626        -1.70156112E-04
   94.6518555        -1.75022826E-04
   94.7786484        -1.79768234E-04
   94.9054413        -1.84323450E-04
   95.0322342        -1.88623861E-04
   95.1590271        -1.92609863E-04
   95.2858200        -1.96227178E-04
   95.4126129        -1.99427275E-04
   95.5394058        -2.02167619E-04
   95.6661987        -2.04411976E-04
   95.7929916        -2.06130746E-04
   95.9197769        -2.07301084E-04
   96.0465698        -2.07907229E-04
   96.1733627        -2.07940626E-04
   96.3001556        -2.07400066E-04
   96.4269485        -2.06291996E-04
   96.5537415        -2.04630254E-04
   96.6805344        -2.02436466E-04
   96.8073273        -1.99739559E-04
   96.9341202        -1.96575740E-04
   97.0609131        -1.92988198E-04
   97.1877060        -1.89026687E-04
   97.3144989        -1.84746721E-04
   97.4412918        -1.80209201E-04
   97.5680847        -1.75479450E-04
   97.6948776        -1.70626430E-04
   97.8216705        -1.65721751E-04
   97.9484634        -1.60838637E-04
   98.0752563        -1.56051028E-04