  -4.50000000         0.00000000    
  -4.37320757         0.00000000    
  -4.24641466         0.00000000    
  -4.11962223         0.00000000    
  -3.99282932         0.00000000    
  -3.86603665         0.00000000    
  -3.73924398         0.00000000    
  -3.61245155         0.00000000    
  -3.48565888         0.00000000    
  -3.35886621         0.00000000    
  -3.23207355         0.00000000    
  -3.10528088         0.00000000    
  -2.97848821         0.00000000    
  -2.85169554         0.00000000    
  -2.72490287         0.00000000    
  -2.59811020         0.00000000    
  -2.47131753         0.00000000    
  -2.34452486         0.00000000    
  -2.21773219         0.00000000    
  -2.09093952         0.00000000    
  -1.96414697         0.00000000    
  -1.83735430         0.00000000    
  -1.71056163         0.00000000    
  -1.58376896         0.00000000    
  -1.45697629         0.00000000    
  -1.33018374         0.00000000    
  -1.20339108         0.00000000    
  -1.07659841         0.00000000    
 -0.949805737         0.00000000    
 -0.823013067         0.00000000    
 -0.696220458         0.00000000    
 -0.569427788         0.00000000    
 -0.442635119         0.00000000    
 -0.315842479         0.00000000    
 -0.189049825         0.00000000    
  -6.22571707E-02     0.00000000    
   6.45354837E-02     0.00000000    
  0.191328138         0.00000000    
  0.318120778         0.00000000    
  0.444913447         0.00000000    
  0.571706116         0.00000000    
  0.698498726         0.00000000    
  0.825291395         0.00000000    
  0.952084064         0.00000000    
   1.07887673         0.00000000    
   1.20566940         0.00000000    
   1.33246195         0.00000000    
   1.45925462         0.00000000    
   1.58604729         0.00000000    
   1.71283996         0.00000000    
   1.83963263         0.00000000    
   1.96642530         0.00000000    
   2.09321785         0.00000000    
   2.22001052         0.00000000    
   2.34680319         0.00000000    
   2.47359586         0.00000000    
   2.60038853         0.00000000    
   2.72718120         0.00000000    
   2.85397387         0.00000000    
   2.98076653         0.00000000    
   3.10755920         0.00000000    
   3.23435187         0.00000000    
   3.36114454         0.00000000    
   3.48793697         0.00000000    
   3.61472964         0.00000000    
   3.74152231         0.00000000    
   3.86831498         0.00000000    
   3.99510765         0.00000000    
   4.12190056         0.00000000    
   4.24869299         0.00000000    
   4.37548542         0.00000000    
   4.50227833         0.00000000    
   4.62907076         0.00000000    
   4.75586367         0.00000000    
   4.88265610         0.00000000    
   5.00944901         0.00000000    
   5.13624144         0.00000000    
   5.26303434         0.00000000    
   5.38982677         0.00000000    
   5.51661968         0.00000000    
   5.64341211         0.00000000    
   5.77020502         0.00000000    
   5.89699745         0.00000000    
   6.02379036         0.00000000    
   6.15058279         0.00000000    
   6.27737522         0.00000000    
   6.40416813         0.00000000    
   6.53096056         0.00000000    
   6.65775347         0.00000000    
   6.78454590         0.00000000    
   6.91133881         0.00000000    
   7.03813124         0.00000000    
   7.16492414         0.00000000    
   7.29171658         0.00000000    
   7.41850948         0.00000000    
   7.54530191         0.00000000    
   7.67209482         0.00000000    
   7.79888725         0.00000000    
   7.92567968         0.00000000    
   8.05247211         0.00000000    
   8.17926502         0.00000000    
   8.30605793         0.00000000    
   8.43285084         0.00000000    
   8.55964279         0.00000000    
   8.68643570         0.00000000    
   8.81322861         0.00000000    
   8.94002151         0.00000000    
   9.06681347         0.00000000    
   9.19360638         0.00000000    
   9.32039928         0.00000000    
   9.44719219         0.00000000    
   9.57398415         0.00000000    
   9.70077705         0.00000000    
   9.82756996         0.00000000    
   9.95436192         0.00000000    
   10.0811548         0.00000000    
   10.2079477         0.00000000    
   10.3347406         0.00000000    
   10.4615326         0.00000000    
   10.5883255         0.00000000    
   10.7151184         0.00000000    
   10.8419113         0.00000000    
   10.9687033         0.00000000    
   11.0954962         0.00000000    
   11.2222891         0.00000000    
   11.3490820         0.00000000    
   11.4758739         0.00000000    
   11.6026669         0.00000000    
   11.7294598         0.00000000    
   11.8562517         0.00000000    
   11.9830446         0.00000000    
   12.1098375         0.00000000    
   12.2366304         0.00000000    
   12.3634224         0.00000000    
   12.4902153         0.00000000    
   12.6170082         0.00000000    
   12.7438011         0.00000000    
   12.8705931         0.00000000    
   12.9973860         0.00000000    
   13.1241789         0.00000000    
   13.2509708         0.00000000    
   13.3777637         0.00000000    
   13.5045567         0.00000000    
   13.6313496         0.00000000    
   13.7581415         0.00000000    
   13.8849344         0.00000000    
   14.0117273         0.00000000    
   14.1385202         0.00000000    
   14.2653122         0.00000000    
   14.3921051         0.00000000    
   14.5188980         0.00000000    
   14.6456909         0.00000000    
   14.7724829         0.00000000    
   14.8992758         0.00000000    
   15.0260687         0.00000000    
   15.1528606         0.00000000    
   15.2796535         0.00000000    
   15.4064465         0.00000000    
   15.5332394         0.00000000    
   15.6600313         0.00000000    
   15.7868242         0.00000000    
   15.9136171         0.00000000    
   16.0404091         0.00000000    
   16.1672020         0.00000000    
   16.2939949         0.00000000    
   16.4207878         0.00000000    
   16.5475807         0.00000000    
   16.6743736         0.00000000    
   16.8011646         0.00000000    
   16.9279575         0.00000000    
   17.0547504         0.00000000    
   17.1815434         0.00000000    
   17.3083363         0.00000000    
   17.4351292         0.00000000    
   17.5619221         0.00000000    
   17.6887150         0.00000000    
   17.8155060         0.00000000    
   17.9422989         0.00000000    
   18.0690918         0.00000000    
   18.1958847         0.00000000    
   18.3226776         0.00000000    
   18.4494705         0.00000000    
   18.5762634         0.00000000    
   18.7030544         0.00000000    
   18.8298473         0.00000000    
   18.9566402         0.00000000    
   19.0834332         0.00000000    
   19.2102261         0.00000000    
   19.3370190         0.00000000    
   19.4638119         0.00000000    
   19.5906048         0.00000000    
   19.7173958         1.45699612E-35
   19.8441887         1.11524487E-34
   19.9709816         2.76427530E-34
   20.0977745         2.51162207E-34
   20.2245674         4.20671919E-35
   20.3513603        -2.16049677E-36
   20.4781532         1.25871258E-34
   20.6049442        -1.32638432E-34
   20.7317371        -1.85981275E-34
   20.8585300         5.52283659E-34
   20.9853230         4.41053792E-34
   21.1121159         7.24980585E-34
   21.2389088        -5.76683019E-34
   21.3657017        -1.74449404E-33
   21.4924946        -3.02075838E-33
   21.6192856        -1.22376961E-33
   21.7460785        -1.40926886E-33
   21.8728714        -2.37844807E-33
   21.9996643        -8.08689126E-33
   22.1264572        -1.38644342E-32
   22.2532501        -2.21451807E-32
   22.3800430        -3.34113404E-32
   22.5068340        -2.16158153E-31
   22.6336269        -6.43629142E-31
   22.7604198        -1.36427489E-30
   22.8872128        -2.00383569E-30
   23.0140057        -2.69449617E-30
   23.1407986        -3.15497380E-30
   23.2675915        -3.07614947E-30
   23.3943844        -2.53831548E-30
   23.5211754        -1.68838699E-30
   23.6479683        -1.24010432E-30
   23.7747612        -8.17518893E-31
   23.9015541        -1.09498155E-30
   24.0283470        -2.90879350E-30
   24.1551399        -7.01815718E-30
   24.2819328        -1.76632316E-29
   24.4087238        -3.58909383E-29
   24.5355167        -6.02340488E-29
   24.6623096        -9.25877038E-29
   24.7891026        -1.26642220E-28
   24.9158955        -1.60691783E-28
   25.0426884        -1.80108370E-28
   25.1694813        -1.89424214E-28
   25.2962742        -1.86277256E-28
   25.4230652        -1.64409826E-28
   25.5498581        -1.20931200E-28
   25.6766510        -5.51621183E-29
   25.8034439         2.29552734E-29
   25.9302368         1.08834048E-28
   26.0570297         1.93461625E-28
   26.1838226         2.68764487E-28
   26.3106136         3.29399334E-28
   26.4374065         3.71074604E-28
   26.5641994         3.85675223E-28
   26.6909924         3.67601743E-28
   26.8177853         3.12180316E-28
   26.9445782         2.23551644E-28
   27.0713711         1.04742699E-28
   27.1981640        -4.48760485E-29
   27.3249550        -2.29363451E-28
   27.4517479        -4.55952359E-28
   27.5785408        -7.25347154E-28
   27.7053337        -1.03466465E-27
   27.8321266        -1.37267623E-27
   27.9589195        -1.71611875E-27
   28.0857124        -2.03105086E-27
   28.2125034        -2.27113652E-27
   28.3392963        -2.37866600E-27
   28.4660892        -2.28846642E-27
   28.5928822        -1.93581401E-27
   28.7196751        -1.25976310E-27
   28.8464680        -2.14655461E-28
   28.9732609         1.22421458E-27
   29.1000538         3.05028534E-27
   29.2268448         5.21774289E-27
   29.3536377         7.63124164E-27
   29.4804306         1.01390112E-26
   29.6072235         1.25310824E-26
   29.7340164         1.45384661E-26
   29.8608093         1.58410712E-26
   29.9876022         1.60798449E-26
   30.1143932         1.48792309E-26
   30.2411861         1.18766299E-26
   30.3679790         6.75874684E-27
   30.4947720        -6.95315358E-28
   30.6215649        -1.05668234E-26
   30.7483578        -2.27451525E-26
   30.8751507        -3.68811178E-26
   31.0019417        -5.23453522E-26
   31.1287346        -6.81948066E-26
   31.2555275        -8.31613900E-26
   31.3823204        -9.56619634E-26
   31.5091133        -1.03841163E-25
   31.6359062        -1.05641787E-25
   31.7626991        -9.89243100E-26
   31.8894920        -8.16202393E-26
   32.0162849        -5.19253085E-26
   32.1430779        -8.52530377E-27
   32.2698708         4.91515349E-26
   32.3966637         1.20671251E-25
   32.5234528         2.04337691E-25
   32.6502457         2.96963532E-25
   32.7770386         3.93698291E-25
   32.9038315         4.87942616E-25
   33.0306244         5.71379497E-25
   33.1574173         6.34151477E-25
   33.2842102         6.65210163E-25
   33.4110031         6.52857883E-25
   33.5377960         5.85486598E-25
   33.6645889         4.52512555E-25
   33.7913818         2.45482864E-25
   33.9181747        -4.06869618E-26
   34.0449677        -4.06406766E-25
   34.1717606        -8.46116923E-25
   34.2985535        -1.34711045E-24
   34.4253426        -1.88857856E-24
   34.5521355        -2.44103758E-24
   34.6789284        -2.96624776E-24
   34.8057213        -3.41776275E-24
   34.9325142        -3.74223820E-24
   35.0593071        -3.88158772E-24
   35.1861000        -3.77601998E-24
   35.3128929        -3.36797695E-24
   35.4396858        -2.60689045E-24
   35.5664787        -1.45461405E-24
   35.6932716         1.08700879E-25
   35.8200645         2.07860963E-24
   35.9468575         4.42062308E-24
   36.0736504         7.06526625E-24
   36.2004433         9.90436481E-24
   36.3272324         1.27892252E-23
   36.4540253         1.55312087E-23
   36.5808182         1.79052856E-23
   36.7076111         1.96569023E-23
   36.8344040         2.05125387E-23
   36.9611969         2.01940598E-23
   37.0879898         1.84366544E-23
   37.2147827         1.50099704E-23
   37.3415756         9.74177821E-24
   37.4683685         2.54294460E-24
   37.5951614        -6.56748713E-24
   37.7219543        -1.74390199E-23
   37.8487473        -2.97700455E-23
   37.9755402        -4.30939472E-23
   38.1023293        -5.67729751E-23
   38.2291222        -7.00026648E-23
   38.3559151        -8.18274941E-23
   38.4827080        -9.11704092E-23
   38.6095009        -9.68763096E-23
   38.7362938        -9.77696851E-23
   38.8630867        -9.27261376E-23
   38.9898796        -8.07549777E-23
   39.1166725        -6.10906128E-23
   39.2434654        -3.32881632E-23
   39.3702583         2.68207127E-24
   39.4970512         4.63467993E-23
   39.6238441         9.66569936E-23
   39.7506371         1.51936630E-22
   39.8774300         2.09860073E-22
   40.0042191         2.67467114E-22
   40.1310120         3.21218430E-22
   40.2578049         3.67099868E-22
   40.3845978         4.00774712E-22
   40.5113907         4.17785582E-22
   40.6381836         4.13799096E-22
   40.7649765         3.84893617E-22
   40.8917694         3.27870030E-22
   41.0185623         2.40577484E-22
   41.1453552         1.22236320E-22
   41.2721481        -2.62667268E-23
   41.3989410        -2.02126409E-22
   41.5257339        -4.00440765E-22
   41.6525269        -6.14126271E-22
   41.7793198        -8.33940986E-22
   41.9061089        -1.04864853E-21
   42.0329018        -1.24532263E-21
   42.1596947        -1.40979738E-21
   42.2864876        -1.52727238E-21
   42.4132805        -1.58304527E-21
   42.5400734        -1.56336318E-21
   42.6668663        -1.45635194E-21
   42.7936592        -1.25298587E-21
   42.9204521        -9.48041373E-22
   43.0472450        -5.40984451E-22
   43.1740379        -3.67209356E-23
   43.3008308         5.53843212E-22
   43.4276237         1.21351021E-21
   43.5544167         1.91879992E-21
   43.6812096         2.64030559E-21
   43.8079987         3.34346444E-21
   43.9347916         3.98967829E-21
   44.0615845         4.53782721E-21
   44.1883774         4.94614021E-21
   44.3151703         5.17430231E-21
   44.4419632         5.18579680E-21
   44.5687561         4.95027207E-21
   44.6955490         4.44588496E-21
   44.8223419         3.66146126E-21
   44.9491348         2.59827023E-21
   45.0759277         1.27136570E-21
   45.2027206        -2.89728870E-22
   45.3295135        -2.04102878E-21
   45.4563065        -3.92490779E-21
   45.5830994        -5.87170725E-21
   45.7098885        -7.80223007E-21
   45.8366814        -9.63085903E-21
   45.9634743        -1.12693439E-20
   46.0902672        -1.26309987E-20
   46.2170601        -1.36351289E-20
   46.3438530        -1.42112747E-20
   46.4706459        -1.43032340E-20
   46.5974388        -1.38723359E-20
   46.7242317        -1.28998421E-20
   46.8510246        -1.13880920E-20
   46.9778175        -9.36050910E-21
   47.1046104        -6.85982821E-21
   47.2314034        -3.94543786E-21
   47.3581963        -6.88804767E-22
   47.4849892         2.83150366E-21
   47.6117783         6.53581171E-21
   47.7385712         1.03494294E-20
   47.8653641         1.42079805E-20
   47.9921570         1.80621656E-20
   48.1189499         2.18801890E-20
   48.2457428         2.56483860E-20
   48.3725357         2.93683594E-20
   48.4993286         3.30513552E-20
   48.6261215         3.67089831E-20
   48.7529144         4.03408327E-20
   48.8797073         4.39190415E-20
   49.0065002         4.73713154E-20
   49.1332932         5.05624554E-20
   49.2600861         5.32775982E-20
   49.3868790         5.52073653E-20
   49.5136681         5.59377012E-20
   49.6404610         5.49467323E-20
   49.7672539         5.16113236E-20
   49.8940468         4.52232178E-20
   50.0208397         3.50192050E-20
   50.1476326         2.02242251E-20
   50.2744255         1.09200526E-22
   50.4012184        -2.59390350E-20
   50.5280113        -5.83346250E-20
   50.6548042        -9.72032475E-20
   50.7815971        -1.42286064E-19
   50.9083900        -1.92847725E-19
   51.0351830        -2.47590408E-19
   51.1619759        -3.04586410E-19
   51.2887688        -3.61231661E-19
   51.4155579        -4.14237006E-19
   51.5423508        -4.59656356E-19
   51.6691437        -4.92967850E-19
   51.7959366        -5.09206026E-19
   51.9227295        -5.03157785E-19
   52.0495224        -4.69612664E-19
   52.1763153        -4.03675177E-19
   52.3031082        -3.01123366E-19
   52.4299011        -1.58813378E-19
   52.5566940         2.48997876E-20
   52.6834869         2.49731074E-19
   52.8102798         5.13058103E-19
   52.9370728         8.09559959E-19
   53.0638657         1.13093788E-18
   53.1906586         1.46573923E-18
   53.3174477         1.79933972E-18
   53.4442406         2.11407512E-18
   53.5710335         2.38959120E-18
   53.6978264         2.60339960E-18
   53.8246193         2.73166099E-18
   53.9514122         2.75019625E-18
   54.0782051         2.63570887E-18
   54.2049980         2.36719735E-18
   54.3317909         1.92750536E-18
   54.4585838         1.30496365E-18
   54.5853767         4.95041179E-19
   54.7121696        -4.98079258E-19
   54.8389626        -1.66008046E-18
   54.9657555        -2.96539142E-18
   55.0925484        -4.37642568E-18
   55.2193375        -5.84331552E-18
   55.3461304        -7.30424386E-18
   55.4729233        -8.68644943E-18
   55.5997162        -9.90794291E-18
   55.7265091        -1.08800183E-17
   55.8533020        -1.15105226E-17
   55.9800949        -1.17078598E-17
   56.1068878        -1.13856473E-17
   56.2336807        -1.04678863E-17
   56.3604736        -8.89446799E-18
   56.4872665        -6.62681686E-18
   56.6140594        -3.65337263E-18
   56.7408524         5.36699136E-21
   56.8676453         4.29256363E-18
   56.9944382         9.11183864E-18
   57.1212273         1.43255688E-17
   57.2480202         1.97548134E-17
   57.3748131         2.51813250E-17
   57.5016060         3.03517647E-17
   57.6283989         3.49842706E-17
   57.7551918         3.87773536E-17
   57.8819847         4.14211916E-17
   58.0087776         4.26109916E-17
   58.1355705         4.20621242E-17
   58.2623634         3.95265973E-17
   58.3891563         3.48101921E-17
   58.5159492         2.77896985E-17
   58.6427422         1.84292069E-17
   58.7695351         6.79477133E-18
   58.8963280        -6.93363014E-18
   59.0231171        -2.24537052E-17
   59.1499100        -3.93369909E-17
   59.2767029        -5.70302850E-17
   59.4034958        -7.48631475E-17
   59.5302887        -9.20617611E-17
   59.6570816        -1.07769458E-16
   59.7838745        -1.21074201E-16
   59.9106674        -1.31041966E-16
   60.0374603        -1.36756249E-16
   60.1642532        -1.37361268E-16
   60.2910461        -1.32109320E-16
   60.4178391        -1.20408883E-16
   60.5446320        -1.01872011E-16
   60.6714249        -7.63593187E-17
   60.7982178        -4.40191541E-17
   60.9250069        -5.31929618E-18
   61.0517998         3.89316625E-17
   61.1785927         8.75754908E-17
   61.3053856         1.39110114E-16
   61.4321785         1.91710833E-16
   61.5589714         2.43269398E-16
   61.6857643         2.91450088E-16
   61.8125572         3.33762798E-16
   61.9393501         3.67652295E-16
   62.0661430         3.90601329E-16
   62.1929359         4.00244058E-16
   62.3197289         3.94487622E-16
   62.4465218         3.71635759E-16
   62.5733147         3.30510244E-16
   62.7001076         2.70563579E-16
   62.8268967         1.91978787E-16
   62.9536896         9.57482272E-17
   63.0804825        -1.62732549E-17
   63.2072754        -1.41345923E-16
   63.3340683        -2.75858832E-16
   63.4608612        -4.15381754E-16
   63.5876541        -5.54759782E-16
   63.7144470        -6.88247463E-16
   63.8412399        -8.09685253E-16
   63.9680328        -9.12712094E-16
   64.0948257        -9.91009808E-16
   64.2216187        -1.03857473E-15
   64.3484116        -1.05000152E-15
   64.4752045        -1.02077582E-15
   64.6019974        -9.47559664E-16
   64.7287903        -8.28455609E-16
   64.8555832        -6.63240933E-16
   64.9823761        -4.53554062E-16
   65.1091690        -2.03021754E-16
   65.2359619         8.26822609E-17
   65.3627548         3.95860213E-16
   65.4895477         7.26899800E-16
   65.6163330         1.06447393E-15
   65.7431259         1.39583332E-15
   65.8699188         1.70718739E-15
   65.9967117         1.98416557E-15
   66.1235046         2.21234693E-15
   66.2502975         2.37784722E-15
   66.3770905         2.46793489E-15
   66.5038834         2.47166289E-15
   66.6306763         2.38048403E-15
   66.7574692         2.18882652E-15
   66.8842621         1.89459925E-15
   67.0110550         1.49960015E-15
   67.1378479         1.00980420E-15
   67.2646408         4.35502255E-16
   67.3914337        -2.08723675E-16
   67.5182266        -9.04201530E-16
   67.6450195        -1.62856155E-15
   67.7718124        -2.35630992E-15
   67.8986053        -3.05958380E-15
   68.0253983        -3.70906580E-15
   68.1521912        -4.27504432E-15
   68.2789841        -4.72857032E-15
   68.4057770        -5.04268826E-15
   68.5325699        -5.19368585E-15
   68.6593628        -5.16231684E-15
   68.7861557        -4.93493677E-15
   68.9129486        -4.50450936E-15
   69.0397415        -3.87141787E-15
   69.1665344        -3.04404138E-15
   69.2933273        -2.03904759E-15
   69.4201126        -8.81368328E-16
   69.5469055         3.96162206E-16
   69.6736984         1.75352740E-15
   69.8004913         3.14459309E-15
   69.9272842         4.51850954E-15
   70.0540771         5.82141223E-15
   70.1808701         6.99837086E-15
   70.3076630         7.99553617E-15
   70.4344559         8.76239660E-15
   70.5612488         9.25405772E-15
   70.6880417         9.43346692E-15
   70.8148346         9.27346917E-15
   70.9416275         8.75859173E-15
   71.0684204         7.88649084E-15
   71.1952133         6.66892417E-15
   71.3220062         5.13223997E-15
   71.4487991         3.31725525E-15
   71.5755920         1.27854615E-15
   71.7023849        -9.16909566E-16
   71.8291779        -3.19169172E-15
   71.9559708        -5.46049149E-15
   72.0827637        -7.63314074E-15
   72.2095566        -9.61810994E-15
   72.3363495        -1.13262374E-14
   72.4631424        -1.26746851E-14
   72.5899353        -1.35908037E-14
   72.7167282        -1.40159279E-14
   72.8435211        -1.39087299E-14
   72.9703140        -1.32481145E-14
   73.0971069        -1.20354107E-14
   73.2238922        -1.02957270E-14
   73.3506851        -8.07838446E-15
   73.4774780        -5.45629190E-15
   73.6042709        -2.52425369E-15
   73.7310638         6.03806431E-16
   73.8578568         3.79868612E-15
   73.9846497         6.92065813E-15
   74.1114426         9.82507143E-15
   74.2382355         1.23685513E-14
   74.3650284         1.44156351E-14
   74.4918213         1.58454403E-14
   74.6186142         1.65583032E-14
   74.7454071         1.64818568E-14
   74.8722000         1.55763582E-14
   74.9989929         1.38389801E-14
   75.1257858         1.13067082E-14
   75.2525787         8.05765671E-15
   75.3793716         4.21065668E-15
   75.5061646        -7.70671670E-17
   75.6329575        -4.61420012E-15
   75.7597504        -9.18147970E-15
   75.8865433        -1.35396971E-14
   76.0133362        -1.74392327E-14
   76.1401291        -2.06308495E-14
   76.2669220        -2.28774976E-14
   76.3937149        -2.39665567E-14
   76.5205078        -2.37218827E-14
   76.6473007        -2.20155993E-14
   76.7740936        -1.87784782E-14
   76.9008865        -1.40086807E-14
   77.0276718        -7.77839758E-15
   77.1544647        -2.37639673E-16
   77.2812576         8.38502733E-15
   77.4080505         1.77851491E-14
   77.5348434         2.75886508E-14
   77.6616364         3.73617864E-14
   77.7884293         4.66246067E-14
   77.9152222         5.48676264E-14
   78.0420151         6.15714958E-14
   78.1688080         6.62287608E-14
   78.2956009         6.83672208E-14
   78.4223938         6.75741066E-14
   78.5491867         6.35197664E-14
   78.6759796         5.59802110E-14
   78.8027725         4.48573267E-14
   78.9295654         3.01956607E-14
   79.0563583         1.21948180E-14
   79.1831512        -8.78327003E-15
   79.3099442        -3.22131678E-14
   79.4367371        -5.74113511E-14
   79.5635300        -8.35484636E-14
   79.6903229        -1.09668690E-13
   79.8171158        -1.34715725E-13
   79.9439087        -1.57565448E-13
   80.0707016        -1.77064011E-13
   80.1974945        -1.92070440E-13
   80.3242874        -2.01502565E-13
   80.4510803        -2.04384740E-13
   80.5778732        -1.99895656E-13
   80.7046585        -1.87413968E-13
   80.8314514        -1.66560410E-13
   80.9582443        -1.37234381E-13
   81.0850372        -9.96423471E-14
   81.2118301        -5.43179325E-14
   81.3386230        -2.13046532E-15
   81.4654160         5.57179492E-14
   81.5922089         1.17707981E-13
   81.7190018         1.82031866E-13
   81.8457947         2.46635123E-13
   81.9725876         3.09270486E-13
   82.0993805         3.67563239E-13
   82.2261734         4.19086180E-13
   82.3529663         4.61442191E-13
   82.4797592         4.92351982E-13
   82.6065521         5.09743777E-13
   82.7333450         5.11843118E-13
   82.8601379         4.97256641E-13
   82.9869308         4.65050795E-13
   83.1137238         4.14817567E-13
   83.2405167         3.46727773E-13
   83.3673096         2.61566458E-13
   83.4941025         1.60750604E-13
   83.6208954         4.63245504E-14
   83.7476883        -7.90658771E-14
   83.8744812        -2.12221544E-13
   84.0012741        -3.49460857E-13
   84.1280670        -4.86711474E-13
   84.2548599        -6.19620728E-13
   84.3816528        -7.43682134E-13
   84.5084381        -8.54375815E-13
   84.6352310        -9.47315685E-13
   84.7620239        -1.01840205E-12
   84.8888168        -1.06397226E-12
   85.0156097        -1.08094545E-12
   85.1424026        -1.06695490E-12
   85.2691956        -1.02046464E-12
   85.3959885        -9.40862731E-13
   85.5227814        -8.28530983E-13
   85.6495743        -6.84882598E-13
   85.7763672        -5.12369335E-13
   85.9031601        -3.14454734E-13
   86.0299530        -9.55518623E-14
   86.1567459         1.39071385E-13
   86.2835388         3.83419370E-13
   86.4103317         6.30925162E-13
   86.5371246         8.74630771E-13
   86.6639175         1.10738762E-12
   86.7907104         1.32207060E-12
   86.9175034         1.51179774E-12
   87.0442963         1.67015111E-12
   87.1710892         1.79138746E-12
   87.2978821         1.87063624E-12
   87.4246750         1.90407369E-12
   87.5514679         1.88906594E-12
   87.6782608         1.82428335E-12
   87.8050537         1.70976839E-12
   87.9318466         1.54696785E-12
   88.0586395         1.33871289E-12
   88.1854324         1.08916413E-12
   88.3122177         8.03701777E-13
   88.4390106         4.88785987E-13
   88.5658035         1.51772759E-13
   88.6925964        -1.99296092E-13
   88.8193893        -5.55927158E-13
   88.9461823        -9.09427644E-13
   89.0729752        -1.25115955E-12
   89.1997681        -1.57279604E-12
   89.3265610        -1.86656203E-12
   89.4533539        -2.12545823E-12
   89.5801468        -2.34345160E-12
   89.7069397        -2.51563505E-12
   89.8337326        -2.63833942E-12
   89.9605255        -2.70920417E-12
   90.0873184        -2.72720019E-12
   90.2141113        -2.69259745E-12
   90.3409042        -2.60688953E-12
   90.4676971        -2.47267766E-12
   90.5944901        -2.29350957E-12
   90.7212830        -2.07369148E-12
   90.8480759        -1.81807922E-12
   90.9748688        -1.53185678E-12
   91.1016617        -1.22030760E-12
   91.2284546        -8.88607222E-13
   91.3552475        -5.41627615E-13
   91.4820404        -1.83777052E-13
   91.6088333         1.81122898E-13
   91.7356262         5.49907776E-13
   91.8624191         9.20091477E-13
   91.9892120         1.28983087E-12
   92.1159973         1.65783218E-12
   92.2427902         2.02320474E-12
   92.3695831         2.38526451E-12
   92.4963760         2.74330320E-12
   92.6231689         3.09631704E-12
   92.7499619         3.44273546E-12
   92.8767548         3.78013506E-12
   93.0035477         4.10497461E-12
   93.1303406         4.41237281E-12
   93.2571335         4.69591943E-12
   93.3839264         4.94757317E-12
   93.5107193         5.15762303E-12
   93.6375122         5.31476382E-12
   93.7643051         5.40625834E-12
   93.8910980         5.41822056E-12
   94.0178909         5.33600724E-12
   94.1446838         5.14471712E-12
   94.2714767         4.82978067E-12
   94.3982697         4.37764668E-12
   94.5250626         3.77652770E-12
   94.6518555         3.01718654E-12
   94.7786484         2.09373729E-12
   94.9054413         1.00442853E-12
   95.0322342        -2.47623401E-13
   95.1590271        -1.65379223E-12
   95.2858200        -3.19941513E-12
   95.4126129        -4.86342563E-12
   95.5394058        -6.61817563E-12
   95.6661987        -8.42946719E-12
   95.7929916        -1.02568275E-11
   95.9197769        -1.20540210E-11
   96.0465698        -1.37698368E-11
   96.1733627        -1.53491247E-11
   96.3001556        -1.67340690E-11
   96.4269485        -1.78657037E-11
   96.5537415        -1.86856138E-11
   96.6805344        -1.91377816E-11
   96.8073273        -1.91705662E-11
   96.9341202        -1.87386964E-11
   97.0609131        -1.78052885E-11
   97.1877060        -1.63437631E-11
   97.3144989        -1.43396120E-11
   97.4412918        -1.17919780E-11
   97.5680847        -8.71488732E-12
   97.6948776        -5.13821364E-12
   97.8216705        -1.10816564E-12
   97.9484634         3.31262340E-12
   98.0752563         8.04553212E-12