  -4.50000000         0.00000000    
  -4.37320757         0.00000000    
  -4.24641466         0.00000000    
  -4.11962223         0.00000000    
  -3.99282932         0.00000000    
  -3.86603665         0.00000000    
  -3.73924398         0.00000000    
  -3.61245155         0.00000000    
  -3.48565888         0.00000000    
  -3.35886621         0.00000000    
  -3.23207355         0.00000000    
  -3.10528088         0.00000000    
  -2.97848821         0.00000000    
  -2.85169554         0.00000000    
  -2.72490287         0.00000000    
  -2.59811020         0.00000000    
  -2.47131753         0.00000000    
  -2.34452486         0.00000000    
  -2.21773219         0.00000000    
  -2.09093952         0.00000000    
  -1.96414697         0.00000000    
  -1.83735430         0.00000000    
  -1.71056163         0.00000000    
  -1.58376896         0.00000000    
  -1.45697629         0.00000000    
  -1.33018374         0.00000000    
  -1.20339108         0.00000000    
  -1.07659841         0.00000000    
 -0.949805737         0.00000000    
 -0.823013067         0.00000000    
 -0.696220458         0.00000000    
 -0.569427788         0.00000000    
 -0.442635119         0.00000000    
 -0.315842479         0.00000000    
 -0.189049825         0.00000000    
  -6.22571707E-02     0.00000000    
   6.45354837E-02     0.00000000    
  0.191328138         0.00000000    
  0.318120778         0.00000000    
  0.444913447         0.00000000    
  0.571706116         0.00000000    
  0.698498726         0.00000000    
  0.825291395         0.00000000    
  0.952084064         0.00000000    
   1.07887673         0.00000000    
   1.20566940         0.00000000    
   1.33246195         0.00000000    
   1.45925462         0.00000000    
   1.58604729         0.00000000    
   1.71283996         0.00000000    
   1.83963263         0.00000000    
   1.96642530         0.00000000    
   2.09321785         0.00000000    
   2.22001052         0.00000000    
   2.34680319         0.00000000    
   2.47359586         0.00000000    
   2.60038853         0.00000000    
   2.72718120         0.00000000    
   2.85397387         0.00000000    
   2.98076653         0.00000000    
   3.10755920         0.00000000    
   3.23435187         0.00000000    
   3.36114454         0.00000000    
   3.48793697         0.00000000    
   3.61472964         0.00000000    
   3.74152231         0.00000000    
   3.86831498         0.00000000    
   3.99510765         0.00000000    
   4.12190056         0.00000000    
   4.24869299         0.00000000    
   4.37548542         0.00000000    
   4.50227833         0.00000000    
   4.62907076         0.00000000    
   4.75586367         0.00000000    
   4.88265610         0.00000000    
   5.00944901         0.00000000    
   5.13624144         0.00000000    
   5.26303434         0.00000000    
   5.38982677         0.00000000    
   5.51661968         0.00000000    
   5.64341211         0.00000000    
   5.77020502         0.00000000    
   5.89699745         0.00000000    
   6.02379036         0.00000000    
   6.15058279         0.00000000    
   6.27737522         0.00000000    
   6.40416813         0.00000000    
   6.53096056         0.00000000    
   6.65775347         0.00000000    
   6.78454590         0.00000000    
   6.91133881         0.00000000    
   7.03813124         0.00000000    
   7.16492414         0.00000000    
   7.29171658         0.00000000    
   7.41850948         0.00000000    
   7.54530191         0.00000000    
   7.67209482         0.00000000    
   7.79888725         0.00000000    
   7.92567968         0.00000000    
   8.05247211         0.00000000    
   8.17926502         0.00000000    
   8.30605793         0.00000000    
   8.43285084         0.00000000    
   8.55964279         0.00000000    
   8.68643570         0.00000000    
   8.81322861         0.00000000    
   8.94002151         0.00000000    
   9.06681347         0.00000000    
   9.19360638         0.00000000    
   9.32039928         0.00000000    
   9.44719219         0.00000000    
   9.57398415         0.00000000    
   9.70077705         0.00000000    
   9.82756996         0.00000000    
   9.95436192         0.00000000    
   10.0811548         0.00000000    
   10.2079477         0.00000000    
   10.3347406         0.00000000    
   10.4615326         0.00000000    
   10.5883255         0.00000000    
   10.7151184         0.00000000    
   10.8419113         0.00000000    
   10.9687033         0.00000000    
   11.0954962         0.00000000    
   11.2222891         0.00000000    
   11.3490820         0.00000000    
   11.4758739         0.00000000    
   11.6026669         0.00000000    
   11.7294598         0.00000000    
   11.8562517         0.00000000    
   11.9830446         0.00000000    
   12.1098375         0.00000000    
   12.2366304         0.00000000    
   12.3634224         0.00000000    
   12.4902153         0.00000000    
   12.6170082         0.00000000    
   12.7438011         0.00000000    
   12.8705931         0.00000000    
   12.9973860         0.00000000    
   13.1241789         0.00000000    
   13.2509708         0.00000000    
   13.3777637         0.00000000    
   13.5045567         0.00000000    
   13.6313496         0.00000000    
   13.7581415         0.00000000    
   13.8849344         0.00000000    
   14.0117273         0.00000000    
   14.1385202         0.00000000    
   14.2653122         0.00000000    
   14.3921051         0.00000000    
   14.5188980         0.00000000    
   14.6456909         0.00000000    
   14.7724829         0.00000000    
   14.8992758         0.00000000    
   15.0260687         0.00000000    
   15.1528606         0.00000000    
   15.2796535         0.00000000    
   15.4064465         0.00000000    
   15.5332394         0.00000000    
   15.6600313         0.00000000    
   15.7868242         0.00000000    
   15.9136171         0.00000000    
   16.0404091         0.00000000    
   16.1672020         0.00000000    
   16.2939949         0.00000000    
   16.4207878         0.00000000    
   16.5475807         0.00000000    
   16.6743736         0.00000000    
   16.8011646         0.00000000    
   16.9279575         0.00000000    
   17.0547504         0.00000000    
   17.1815434         0.00000000    
   17.3083363         0.00000000    
   17.4351292         0.00000000    
   17.5619221         0.00000000    
   17.6887150         0.00000000    
   17.8155060         0.00000000    
   17.9422989         0.00000000    
   18.0690918         0.00000000    
   18.1958847         0.00000000    
   18.3226776         0.00000000    
   18.4494705         0.00000000    
   18.5762634         0.00000000    
   18.7030544         0.00000000    
   18.8298473         0.00000000    
   18.9566402         0.00000000    
   19.0834332         0.00000000    
   19.2102261         0.00000000    
   19.3370190         0.00000000    
   19.4638119         0.00000000    
   19.5906048         0.00000000    
   19.7173958         1.15506222E-34
   19.8441887         4.95414390E-34
   19.9709816         1.01434427E-33
   20.0977745         1.25145434E-33
   20.2245674         5.97475539E-34
   20.3513603        -7.02152530E-34
   20.4781532        -1.68062540E-33
   20.6049442        -1.99789701E-33
   20.7317371        -1.82918198E-33
   20.8585300        -1.39647544E-33
   20.9853230        -4.75627092E-33
   21.1121159        -8.55387990E-33
   21.2389088        -1.31491489E-32
   21.3657017        -1.01036252E-32
   21.4924946         9.30415258E-34
   21.6192856         1.49851079E-32
   21.7460785         2.38679544E-32
   21.8728714         2.61386891E-32
   21.9996643         2.42986702E-32
   22.1264572         2.70818793E-32
   22.2532501         4.25716593E-32
   22.3800430         6.69623648E-32
   22.5068340        -6.46117699E-32
   22.6336269        -3.67083141E-31
   22.7604198        -7.56920561E-31
   22.8872128        -3.86568535E-31
   23.0140057         5.74322513E-31
   23.1407986         2.02726489E-30
   23.2675915         3.35770877E-30
   23.3943844         5.17318024E-30
   23.5211754         6.73911175E-30
   23.6479683         7.82329595E-30
   23.7747612         9.26479132E-30
   23.9015541         1.12740042E-29
   24.0283470         1.36429537E-29
   24.1551399         1.62589865E-29
   24.2819328         2.44291514E-29
   24.4087238         4.01137805E-29
   24.5355167         6.41915038E-29
   24.6623096         9.87762644E-29
   24.7891026         1.37206283E-28
   24.9158955         1.67823308E-28
   25.0426884         1.92124596E-28
   25.1694813         2.05999802E-28
   25.2962742         2.12628973E-28
   25.4230652         2.10179696E-28
   25.5498581         1.89472193E-28
   25.6766510         1.40026145E-28
   25.8034439         4.93340918E-29
   25.9302368        -9.30847924E-29
   26.0570297        -2.95988975E-28
   26.1838226        -5.69671781E-28
   26.3106136        -9.13476276E-28
   26.4374065        -1.31158477E-27
   26.5641994        -1.74100003E-27
   26.6909924        -2.18407967E-27
   26.8177853        -2.62141098E-27
   26.9445782        -3.02948453E-27
   27.0713711        -3.35829104E-27
   27.1981640        -3.54916418E-27
   27.3249550        -3.52830635E-27
   27.4517479        -3.21541535E-27
   27.5785408        -2.53322689E-27
   27.7053337        -1.40999787E-27
   27.8321266         2.05092280E-28
   27.9589195         2.34733266E-27
   28.0857124         5.03030330E-27
   28.2125034         8.23403306E-27
   28.3392963         1.18901576E-26
   28.4660892         1.58731017E-26
   28.5928822         1.99860653E-26
   28.7196751         2.39485152E-26
   28.8464680         2.73936911E-26
   28.9732609         2.98722920E-26
   29.1000538         3.08646451E-26
   29.2268448         2.98038306E-26
   29.3536377         2.61028897E-26
   29.4804306         1.91945019E-26
   29.6072235         8.57501896E-27
   29.7340164        -6.13713986E-27
   29.8608093        -2.51365304E-26
   29.9876022        -4.83528532E-26
   30.1143932        -7.53716720E-26
   30.2411861        -1.05356059E-25
   30.3679790        -1.36976883E-25
   30.4947720        -1.68362220E-25
   30.6215649        -1.97076535E-25
   30.7483578        -2.20135654E-25
   30.8751507        -2.34072731E-25
   31.0019417        -2.35057919E-25
   31.1287346        -2.19075326E-25
   31.2555275        -1.82169060E-25
   31.3823204        -1.20754365E-25
   31.5091133        -3.19946113E-26
   31.6359062         8.57678604E-26
   31.7626991         2.32533367E-25
   31.8894920         4.06157190E-25
   32.0162849         6.01882332E-25
   32.1430779         8.11934446E-25
   32.2698708         1.02523252E-24
   32.3966637         1.22726375E-24
   32.5234528         1.40018048E-24
   32.6502457         1.52316902E-24
   32.7770386         1.57313991E-24
   32.9038315         1.52577749E-24
   33.0306244         1.35696668E-24
   33.1574173         1.04460330E-24
   33.2842102         5.70752501E-25
   33.4110031        -7.59006896E-26
   33.5377960        -8.97416054E-25
   33.6645889        -1.88392093E-24
   33.7913818        -3.01107951E-24
   33.9181747        -4.23793275E-24
   34.0449677        -5.50537191E-24
   34.1717606        -6.73551213E-24
   34.2985535        -7.83225283E-24
   34.4253426        -8.68328623E-24
   34.5521355        -9.16380192E-24
   34.6789284        -9.14203330E-24
   34.8057213        -8.48674627E-24
   34.9325142        -7.07661875E-24
   35.0593071        -4.81134549E-24
   35.1861000        -1.62409046E-24
   35.3128929         2.50524080E-24
   35.4396858         7.53665324E-24
   35.5664787         1.33575577E-23
   35.6932716         1.97722369E-23
   35.8200645         2.64944741E-23
   35.9468575         3.31446914E-23
   36.0736504         3.92528288E-23
   36.2004433         4.42683086E-23
   36.3272324         4.75779304E-23
   36.4540253         4.85325183E-23
   36.5808182         4.64826317E-23
   36.7076111         4.08228040E-23
   36.8344040         3.10435730E-23
   36.9611969         1.67894055E-23
   37.0879898        -2.07996726E-24
   37.2147827        -2.54283633E-23
   37.3415756        -5.27861510E-23
   37.4683685        -8.33024620E-23
   37.5951614        -1.15711998E-22
   37.7219543        -1.48322082E-22
   37.8487473        -1.79025533E-22
   37.9755402        -2.05344242E-22
   38.1023293        -2.24508223E-22
   38.2291222        -2.33571819E-22
   38.3559151        -2.29568823E-22
   38.4827080        -2.09704510E-22
   38.6095009        -1.71579569E-22
   38.7362938        -1.13439233E-22
   38.8630867        -3.44356371E-23
   38.9898796         6.51105659E-23
   39.1166725         1.83466895E-22
   39.2434654         3.17284248E-22
   39.3702583         4.61452883E-22
   39.4970512         6.09041715E-22
   39.6238441         7.51342378E-22
   39.7506371         8.78040709E-22
   39.8774300         9.77527353E-22
   40.0042191         1.03736325E-21
   40.1310120         1.04489713E-21
   40.2578049         9.88032103E-22
   40.3845978         8.56120625E-22
   40.5113907         6.40959356E-22
   40.6381836         3.37838480E-22
   40.7649765        -5.34050881E-23
   40.8917694        -5.27405239E-22
   41.0185623        -1.07242482E-21
   41.1453552        -1.66974464E-21
   41.2721481        -2.29336209E-21
   41.3989410        -2.91008844E-21
   41.5257339        -3.48012130E-21
   41.6525269        -3.95814849E-21
   41.7793198        -4.29502022E-21
   41.9061089        -4.44001190E-21
   42.0329018        -4.34365101E-21
   42.1596947        -3.96102706E-21
   42.2864876        -3.25550461E-21
   42.4132805        -2.20267292E-21
   42.5400734        -7.94333808E-22
   42.6668663         9.57704099E-22
   42.7936592         3.01830350E-21
   42.9204521         5.32643932E-21
   43.0472450         7.79371431E-21
   43.1740379         1.03042454E-20
   43.3008308         1.27162023E-20
   43.4276237         1.48652062E-20
   43.5544167         1.65697605E-20
   43.6812096         1.76387671E-20
   43.8079987         1.78810761E-20
   43.9347916         1.71168662E-20
   44.0615845         1.51905209E-20
   44.1883774         1.19845845E-20
   44.3151703         7.43402484E-21
   44.4419632         1.54016113E-21
   44.5687561        -5.61673771E-21
   44.6955490        -1.38671127E-20
   44.8223419        -2.29451081E-20
   44.9491348        -3.24858448E-20
   45.0759277        -4.20280420E-20
   45.2027206        -5.10226618E-20
   45.3295135        -5.88482783E-20
   45.4563065        -6.48334535E-20
   45.5830994        -6.82860214E-20
   45.7098885        -6.85290186E-20
   45.8366814        -6.49420662E-20
   45.9634743        -5.70071811E-20
   46.0902672        -4.43567009E-20
   46.2170601        -2.68214832E-20
   46.3438530        -4.47621074E-21
   46.4706459         2.23209341E-20
   46.5974388         5.28977090E-20
   46.7242317         8.62494633E-20
   46.8510246         1.21036169E-19
   46.9778175         1.55597895E-19
   47.1046104         1.87990456E-19
   47.2314034         2.16043381E-19
   47.3581963         2.37439972E-19
   47.4849892         2.49819531E-19
   47.6117783         2.50898950E-19
   47.7385712         2.38611208E-19
   47.8653641         2.11254820E-19
   47.9921570         1.67648869E-19
   48.1189499         1.07285519E-19
   48.2457428         3.04710752E-20
   48.3725357        -6.15531589E-20
   48.4993286        -1.66520841E-19
   48.6261215        -2.81091016E-19
   48.7529144        -4.00847744E-19
   48.8797073        -5.20357351E-19
   49.0065002        -6.33289425E-19
   49.1332932        -7.32604245E-19
   49.2600861        -8.10808640E-19
   49.3868790        -8.60276729E-19
   49.5136681        -8.73627941E-19
   49.6404610        -8.44152239E-19
   49.7672539        -7.66268170E-19
   49.8940468        -6.35992341E-19
   50.0208397        -4.51400474E-19
   50.1476326        -2.13051947E-19
   50.2744255         7.56475411E-20
   50.4012184         4.08175065E-19
   50.5280113         7.74738034E-19
   50.6548042         1.16226662E-18
   50.7815971         1.55457212E-18
   50.9083900         1.93268786E-18
   51.0351830         2.27540677E-18
   51.1619759         2.56000405E-18
   51.2887688         2.76315672E-18
   51.4155579         2.86201700E-18
   51.5423508         2.83543142E-18
   51.6691437         2.66524728E-18
   51.7959366         2.33766184E-18
   51.9227295         1.84455569E-18
   52.0495224         1.18472840E-18
   52.1763153         3.64979512E-19
   52.3031082        -5.99056711E-19
   52.4299011        -1.68239014E-18
   52.5566940        -2.85053925E-18
   52.6834869        -4.05983967E-18
   52.8102798        -5.25824819E-18
   52.9370728        -6.38666192E-18
   53.0638657        -7.38076965E-18
   53.1906586        -8.17340968E-18
   53.3174477        -8.69739469E-18
   53.4442406        -8.88872487E-18
   53.5710335        -8.69009068E-18
   53.6978264        -8.05453721E-18
   53.8246193        -6.94911703E-18
   53.9514122        -5.35839412E-18
   54.0782051        -3.28757889E-18
   54.2049980        -7.65093108E-19
   54.3317909         2.15559152E-18
   54.4585838         5.39506882E-18
   54.5853767         8.84820708E-18
   54.7121696         1.23855805E-17
   54.8389626         1.58562384E-17
   54.9657555         1.90918248E-17
   55.0925484         2.19120326E-17
   55.2193375         2.41313483E-17
   55.3461304         2.55668739E-17
   55.4729233         2.60470440E-17
   55.5997162         2.54209444E-17
   55.7265091         2.35678646E-17
   55.8533020         2.04066615E-17
   55.9800949         1.59045573E-17
   56.1068878         1.00847883E-17
   56.2336807         3.03272413E-18
   56.3604736        -5.10009953E-18
   56.4872665        -1.40943834E-17
   56.6140594        -2.36643420E-17
   56.7408524        -3.34620961E-17
   56.8676453        -4.30853996E-17
   56.9944382        -5.20886749E-17
   57.1212273        -5.99974281E-17
   57.2480202        -6.63255319E-17
   57.3748131        -7.05952529E-17
   57.5016060        -7.23591990E-17
   57.6283989        -7.12237050E-17
   57.7551918        -6.68724637E-17
   57.8819847        -5.90896934E-17
   58.0087776        -4.77817043E-17
   58.1355705        -3.29955828E-17
   58.2623634        -1.49340544E-17
   58.3891563         6.03473669E-18
   58.5159492         2.93733556E-17
   58.6427422         5.43781553E-17
   58.7695351         8.01898400E-17
   58.8963280         1.05811753E-16
   59.0231171         1.30136474E-16
   59.1499100         1.51979839E-16
   59.2767029         1.70122412E-16
   59.4034958         1.83357077E-16
   59.5302887         1.90541451E-16
   59.6570816         1.90653445E-16
   59.7838745         1.82848380E-16
   59.9106674         1.66514515E-16
   60.0374603         1.41325806E-16
   60.1642532         1.07287470E-16
   60.2910461         6.47737675E-17
   60.4178391         1.45543289E-17
   60.5446320        -4.21937121E-17
   60.6714249        -1.03888247E-16
   60.7982178        -1.68562601E-16
   60.9250069        -2.33903649E-16
   61.0517998        -2.97308882E-16
   61.1785927        -3.55961282E-16
   61.3053856        -4.06921669E-16
   61.4321785        -4.47235725E-16
   61.5589714        -4.74053636E-16
   61.6857643        -4.84758544E-16
   61.8125572        -4.77099037E-16
   61.9393501        -4.49320697E-16
   62.0661430        -4.00293477E-16
   62.1929359        -3.29623798E-16
   62.3197289        -2.37752540E-16
   62.4465218        -1.26026909E-16
   62.5733147         3.25573099E-18
   62.7001076         1.46838336E-16
   62.8268967         3.00532345E-16
   62.9536896         4.59286622E-16
   63.0804825         6.17298871E-16
   63.2072754         7.68169204E-16
   63.3340683         9.05093879E-16
   63.4608612         1.02109599E-15
   63.5876541         1.10928801E-15
   63.7144470         1.16315740E-15
   63.8412399         1.17686768E-15
   63.9680328         1.14556473E-15
   64.0948257         1.06567364E-15
   64.2216187         9.35178054E-16
   64.3484116         7.53863664E-16
   64.4752045         5.23515225E-16
   64.6019974         2.48056299E-16
   64.7287903        -6.63867962E-17
   64.8555832        -4.11498029E-16
   64.9823761        -7.76876755E-16
   65.1091690        -1.15023676E-15
   65.2359619        -1.51769966E-15
   65.3627548        -1.86418420E-15
   65.4895477        -2.17388211E-15
   65.6163330        -2.43081240E-15
   65.7431259        -2.61943986E-15
   65.8699188        -2.72533952E-15
   65.9967117        -2.73588000E-15
   66.1235046        -2.64091130E-15
   66.2502975        -2.43341703E-15
   66.3770905        -2.11011217E-15
   66.5038834        -1.67194870E-15
   66.6306763        -1.12450538E-15
   66.7574692        -4.78228502E-16
   66.8842621         2.51493849E-16
   67.0110550         1.04445070E-15
   67.1378479         1.87592895E-15
   67.2646408         2.71724739E-15
   67.3914337         3.53650337E-15
   67.5182266         4.29951891E-15
   67.6450195         4.97097336E-15
   67.7718124         5.51569221E-15
   67.8986053         5.90006093E-15
   68.0253983         6.09350166E-15
   68.1521912         6.06999014E-15
   68.2789841         5.80952243E-15
   68.4057770         5.29948959E-15
   68.5325699         4.53589320E-15
   68.6593628         3.52432008E-15
   68.7861557         2.28064214E-15
   68.9129486         8.31363632E-16
   69.0397415        -7.86427210E-16
   69.1665344        -2.52552551E-15
   69.2933273        -4.32953437E-15
   69.4201126        -6.13424352E-15
   69.5469055        -7.86944769E-15
   69.6736984        -9.46117421E-15
   69.8004913        -1.08342748E-14
   69.9272842        -1.19152980E-14
   70.0540771        -1.26355581E-14
   70.1808701        -1.29343049E-14
   70.3076630        -1.27618456E-14
   70.4344559        -1.20825354E-14
   70.5612488        -1.08774446E-14
   70.6880417        -9.14662175E-15
   70.8148346        -6.91078808E-15
   70.9416275        -4.21234355E-15
   71.0684204        -1.11561502E-15
   71.1952133         2.29378153E-15
   71.3220062         5.91046631E-15
   71.4487991         9.61175634E-15
   71.5755920         1.32610563E-14
   71.7023849         1.67120719E-14
   71.8291779         1.98137862E-14
   71.9559708         2.24160883E-14
   72.0827637         2.43757854E-14
   72.2095566         2.55629021E-14
   72.3363495         2.58669598E-14
   72.4631424         2.52029944E-14
   72.5899353         2.35170820E-14
   72.7167282         2.07910319E-14
   72.8435211         1.70460451E-14
   72.9703140         1.23451274E-14
   73.0971069         6.79395852E-15
   73.2238922         5.40139305E-16
   73.3506851        -6.22930518E-15
   73.4774780        -1.32922288E-14
   73.6042709        -2.03974190E-14
   73.7310638        -2.72723044E-14
   73.8578568        -3.36321615E-14
   73.9846497        -3.91904662E-14
   74.1114426        -4.36702032E-14
   74.2382355        -4.68156533E-14
   74.3650284        -4.84041586E-14
   74.4918213        -4.82575981E-14
   74.6186142        -4.62527660E-14
   74.7454071        -4.23304648E-14
   74.8722000        -3.65026070E-14
   74.9989929        -2.88569963E-14
   75.1257858        -1.95594053E-14
   75.2525787        -8.85261577E-15
   75.3793716         2.94767339E-15
   75.5061646         1.54602402E-14
   75.6329575         2.82489079E-14
   75.7597504         4.08360750E-14
   75.8865433         5.27189207E-14
   76.0133362         6.33877716E-14
   76.1401291         7.23460056E-14
   76.2669220         7.91309360E-14
   76.3937149         8.33345572E-14
   76.5205078         8.46236262E-14
   76.6473007         8.27581547E-14
   76.7740936         7.76071305E-14
   76.9008865         6.91610465E-14
   77.0276718         5.75402288E-14
   77.1544647         4.29984925E-14
   77.2812576         2.59214918E-14
   77.4080505         6.81964818E-15
   77.5348434        -1.36844949E-14
   77.6616364        -3.48743048E-14
   77.7884293        -5.59621997E-14
   77.9152222        -7.61169488E-14
   78.0420151        -9.44947381E-14
   78.1688080        -1.10272529E-13
   78.2956009        -1.22682694E-13
   78.4223938        -1.31047571E-13
   78.5491867        -1.34812232E-13
   78.6759796        -1.33574331E-13
   78.8027725        -1.27109708E-13
   78.9295654        -1.15391542E-13
   79.0563583        -9.86030580E-14
   79.1831512        -7.71421840E-14
   79.3099442        -5.16171409E-14
   79.4367371        -2.28337145E-14
   79.5635300         8.22700147E-15
   79.6903229         4.04391859E-14
   79.8171158         7.25706049E-14
   79.9439087         1.03327896E-13
   80.0707016         1.31406726E-13
   80.1974945         1.55545105E-13
   80.3242874         1.74578464E-13
   80.4510803         1.87493074E-13
   80.5778732         1.93476840E-13
   80.7046585         1.91963849E-13
   80.8314514         1.82671085E-13
   80.9582443         1.65625665E-13
   81.0850372         1.41179698E-13
   81.2118301         1.10012951E-13
   81.3386230         7.31209865E-14
   81.4654160         3.17897767E-14
   81.5922089        -1.24437602E-14
   81.7190018        -5.78441442E-14
   81.8457947        -1.02540982E-13
   81.9725876        -1.44602036E-13
   82.0993805        -1.82112815E-13
   82.2261734        -2.13260006E-13
   82.3529663        -2.36414919E-13
   82.4797592        -2.50213668E-13
   82.6065521        -2.53630667E-13
   82.7333450        -2.46041116E-13
   82.8601379        -2.27269307E-13
   82.9869308        -1.97621582E-13
   83.1137238        -1.57898312E-13
   83.2405167        -1.09386709E-13
   83.3673096        -5.38308479E-14
   83.4941025         6.61920419E-15
   83.6208954         6.94789820E-14
   83.7476883         1.32020425E-13
   83.8744812         1.91377459E-13
   84.0012741         2.44664803E-13
   84.1280670         2.89104081E-13
   84.2548599         3.22152705E-13
   84.3816528         3.41629259E-13
   84.5084381         3.45832114E-13
   84.6352310         3.33642592E-13
   84.7620239         3.04610260E-13
   84.8888168         2.59012240E-13
   85.0156097         1.97887374E-13
   85.1424026         1.23035561E-13
   85.2691956         3.69880721E-14
   85.3959885        -5.70597240E-14
   85.5227814        -1.55344921E-13
   85.6495743        -2.53667394E-13
   85.7763672        -3.47543663E-13
   85.9031601        -4.32385789E-13
   86.0299530        -5.03692953E-13
   86.1567459        -5.57252757E-13
   86.2835388        -5.89342485E-13
   86.4103317        -5.96921275E-13
   86.5371246        -5.77805490E-13
   86.6639175        -5.30817903E-13
   86.7907104        -4.55904574E-13
   86.9175034        -3.54210205E-13
   87.0442963        -2.28106135E-13
   87.1710892        -8.11726107E-14
   87.2978821         8.18766035E-14
   87.4246750         2.55317279E-13
   87.5514679         4.32589484E-13
   87.6782608         6.06519717E-13
   87.8050537         7.69578466E-13
   87.9318466         9.14171299E-13
   88.0586395         1.03294912E-12
   88.1854324         1.11912682E-12
   88.3122177         1.16679886E-12
   88.4390106         1.17123423E-12
   88.5658035         1.12914636E-12
   88.6925964         1.03891364E-12
   88.8193893         9.00748822E-13
   88.9461823         7.16802540E-13
   89.0729752         4.91191885E-13
   89.1997681         2.29954456E-13
   89.3265610        -5.90813273E-14
   89.4533539        -3.66504678E-13
   89.5801468        -6.81605976E-13
   89.7069397        -9.92729228E-13
   89.8337326        -1.28768122E-12
   89.9605255        -1.55418560E-12
   90.0873184        -1.78036557E-12
   90.2141113        -1.95523285E-12
   90.3409042        -2.06917144E-12
   90.4676971        -2.11438983E-12
   90.5944901        -2.08532627E-12
   90.7212830        -1.97898295E-12
   90.8480759        -1.79517263E-12
   90.9748688        -1.53667747E-12
   91.1016617        -1.20928430E-12
   91.2284546        -8.21711080E-13
   91.3552475        -3.85408041E-13
   91.4820404         8.57569156E-14
   91.6088333         5.75925267E-13
   91.7356262         1.06777445E-12
   91.8624191         1.54312826E-12
   91.9892120         1.98362746E-12
   92.1159973         2.37144354E-12
   92.2427902         2.68999970E-12
   92.3695831         2.92467786E-12
   92.4963760         3.06348393E-12
   92.6231689         3.09762806E-12
   92.7499619         3.02201254E-12
   92.8767548         2.83559808E-12
   93.0035477         2.54160928E-12
   93.1303406         2.14758983E-12
   93.2571335         1.66528987E-12
   93.3839264         1.11036939E-12
   93.5107193         5.01936112E-13
   93.6375122        -1.38072225E-13
   93.7643051        -7.85646179E-13
   93.8910980        -1.41559171E-12
   94.0178909        -2.00248542E-12
   94.1446838        -2.52169986E-12
   94.2714767        -2.95042571E-12
   94.3982697        -3.26867678E-12
   94.5250626        -3.46022321E-12
   94.6518555        -3.51341070E-12
   94.7786484        -3.42183833E-12
   94.9054413        -3.18484692E-12
   95.0322342        -2.80779696E-12
   95.1590271        -2.30212203E-12
   95.2858200        -1.68513163E-12
   95.4126129        -9.79566797E-13
   95.5394058        -2.12918062E-13
   95.6661987         5.83479933E-13
   95.7929916         1.37555852E-12
   95.9197769         2.12778276E-12
   96.0465698         2.80453677E-12
   96.1733627         3.37158968E-12
   96.3001556         3.79755992E-12
   96.4269485         4.05535371E-12
   96.5537415         4.12349929E-12
   96.6805344         3.98729964E-12
   96.8073273         3.63981154E-12
   96.9341202         3.08251905E-12
   97.0609131         2.32574940E-12
   97.1877060         1.38872507E-12
   97.3144989         2.99291624E-13
   97.4412918        -9.06708302E-13
   97.5680847        -2.18642725E-12
   97.6948776        -3.49128994E-12
   97.8216705        -4.76858050E-12
   97.9484634        -5.96325680E-12
   98.0752563        -7.01994756E-12