  -4.50000000         0.00000000    
  -4.37320757         0.00000000    
  -4.24641466         0.00000000    
  -4.11962223         0.00000000    
  -3.99282932         0.00000000    
  -3.86603665         0.00000000    
  -3.73924398        -9.93686591E-33
  -3.61245155        -7.88996158E-32
  -3.48565888         8.04690418E-32
  -3.35886621         1.16128074E-30
  -3.23207355        -4.52962219E-31
  -3.10528088         1.15130843E-29
  -2.97848821         7.35195168E-29
  -2.85169554         2.13106171E-28
  -2.72490287         3.75305535E-28
  -2.59811020         2.36305176E-28
  -2.47131753        -9.25227145E-28
  -2.34452486        -3.98071616E-27
  -2.21773219        -8.81650284E-27
  -2.09093952        -1.20416035E-26
  -1.96414697        -4.29773963E-27
  -1.83735430         3.01807952E-26
  -1.71056163         1.07135840E-25
  -1.58376896         2.24238347E-25
  -1.45697629         3.31120716E-25
  -1.33018374         2.98087980E-25
  -1.20339108        -9.01355490E-26
  -1.07659841        -1.07652830E-24
 -0.949805737        -2.77568026E-24
 -0.823013067        -4.92548656E-24
 -0.696220458        -6.63708123E-24
 -0.569427788        -6.34817157E-24
 -0.442635119        -2.27943272E-24
 -0.315842479         6.31996111E-24
 -0.189049825         1.70740960E-23
  -6.22571707E-02     2.19595983E-23
   6.45354837E-02     5.50568587E-24
  0.191328138        -5.44358390E-23
  0.318120778        -1.81225861E-22
  0.444913447        -3.87831133E-22
  0.571706116        -6.59693856E-22
  0.698498726        -9.36163779E-22
  0.825291395        -1.09877272E-21
  0.952084064        -9.77960532E-22
   1.07887673        -3.90068241E-22
   1.20566940         7.88854241E-22
   1.33246195         2.51800786E-21
   1.45925462         4.47919594E-21
   1.58604729         6.00003697E-21
   1.71283996         6.07053473E-21
   1.83963263         3.50933435E-21
   1.96642530        -2.68933583E-21
   2.09321785        -1.28494971E-20
   2.22001052        -2.60439561E-20
   2.34680319        -3.96354447E-20
   2.47359586        -4.91561288E-20
   2.60038853        -4.87495049E-20
   2.72718120        -3.23101659E-20
   2.85397387         4.72298683E-21
   2.98076653         6.32138468E-20
   3.10755920         1.38367296E-19
   3.23435187         2.18687684E-19
   3.36114454         2.86588666E-19
   3.48793697         3.21140103E-19
   3.61472964         3.02935564E-19
   3.74152231         2.20380173E-19
   3.86831498         7.60057232E-20
   3.99510765        -1.09047259E-19
   4.12190056        -2.94258284E-19
   4.24869299        -4.23954673E-19
   4.37548542        -4.36663786E-19
   4.50227833        -2.78214625E-19
   4.62907076         8.42058037E-20
   4.75586367         6.50648069E-19
   4.88265610         1.38304247E-18
   5.00944901         2.20790636E-18
   5.13624144         3.02684639E-18
   5.26303434         3.73209706E-18
   5.38982677         4.22255437E-18
   5.51661968         4.41559558E-18
   5.64341211         4.25180885E-18
   5.77020502         3.69319724E-18
   5.89699745         2.71926776E-18
   6.02379036         1.32796951E-18
   6.15058279        -4.52209973E-19
   6.27737522        -2.53711762E-18
   6.40416813        -4.75470158E-18
   6.53096056        -6.82012235E-18
   6.65775347        -8.33836521E-18
   6.78454590        -8.85343321E-18
   6.91133881        -7.95324895E-18
   7.03813124        -5.42109193E-18
   7.16492414        -1.40224722E-18
   7.29171658         3.46419911E-18
   7.41850948         8.00531831E-18
   7.54530191         1.06115312E-17
   7.67209482         9.48570856E-18
   7.79888725         3.01405094E-18
   7.92567968        -9.81796055E-18
   8.05247211        -2.90735556E-17
   8.17926502        -5.36893025E-17
   8.30605793        -8.15560445E-17
   8.43285084        -1.09870212E-16
   8.55964279        -1.35685850E-16
   8.68643570        -1.56521035E-16
   8.81322861        -1.70829909E-16
   8.94002151        -1.78162276E-16
   9.06681347        -1.78904251E-16
   9.19360638        -1.73612995E-16
   9.32039928        -1.62095398E-16
   9.44719219        -1.42497729E-16
   9.57398415        -1.10733008E-16
   9.70077705        -6.05481451E-17
   9.82756996         1.55802165E-17
   9.95436192         1.24710924E-16
   10.0811548         2.71069310E-16
   10.2079477         4.53444212E-16
   10.3347406         6.62894814E-16
   10.4615326         8.81357528E-16
   10.5883255         1.08169390E-15
   10.7151184         1.22956351E-15
   10.8419113         1.28727229E-15
   10.9687033         1.21944072E-15
   11.0954962         1.00000625E-15
   11.2222891         6.19733138E-16
   11.3490820         9.31087600E-17
   11.4758739        -5.36707339E-16
   11.6026669        -1.19627850E-15
   11.7294598        -1.78485682E-15
   11.8562517        -2.18273826E-15
   11.9830446        -2.26514906E-15
   12.1098375        -1.92086172E-15
   12.2366304        -1.07376239E-15
   12.3634224         2.95385403E-16
   12.4902153         2.13039480E-15
   12.6170082         4.28796242E-15
   12.7438011         6.53605096E-15
   12.8705931         8.56455342E-15
   12.9973860         1.00088530E-14
   13.1241789         1.04850668E-14
   13.2509708         9.63388423E-15
   13.3777637         7.16830346E-15
   13.5045567         2.91977593E-15
   13.6313496        -3.12284065E-15
   13.7581415        -1.07864310E-14
   13.8849344        -1.97021930E-14
   14.0117273        -2.93112058E-14
   14.1385202        -3.88865779E-14
   14.2653122        -4.75700988E-14
   14.3921051        -5.44203829E-14
   14.5188980        -5.84690377E-14
   14.6456909        -5.87816742E-14
   14.7724829        -5.45213322E-14
   14.8992758        -4.50123676E-14
   15.0260687        -2.98037352E-14
   15.1528606        -8.72944363E-15
   15.2796535         1.80358404E-14
   15.4064465         4.99305594E-14
   15.5332394         8.59752197E-14
   15.6600313         1.24763576E-13
   15.7868242         1.64483919E-13
   15.9136171         2.02976823E-13
   16.0404091         2.37832892E-13
   16.1672020         2.66529041E-13
   16.2939949         2.86596755E-13
   16.4207878         2.95807405E-13
   16.5475807         2.92355658E-13
   16.6743736         2.75016772E-13
   16.8011646         2.43252629E-13
   16.9279575         1.97243833E-13
   17.0547504         1.37830638E-13
   17.1815434         6.63572658E-14
   17.3083363        -1.55752571E-14
   17.4351292        -1.06427914E-13
   17.5619221        -2.05079660E-13
   17.6887150        -3.11174399E-13
   17.8155060        -4.25403446E-13
   17.9422989        -5.49664481E-13
   18.0690918        -6.87037883E-13
   18.1958847        -8.41528182E-13
   18.3226776        -1.01753306E-12
   18.4494705        -1.21901859E-12
   18.5762634        -1.44840802E-12
   18.7030544        -1.70521626E-12
   18.8298473        -1.98450501E-12
   18.9566402        -2.27525377E-12
   19.0834332        -2.55880842E-12
   19.2102261        -2.80757795E-12
   19.3370190        -2.98420121E-12
   19.4638119        -3.04142150E-12
   19.5906048        -2.92291408E-12
   19.7173958        -2.56529043E-12
   19.8441887        -1.90146466E-12
   19.9709816        -8.65483900E-13
   20.0977745         6.01184955E-13
   20.2245674         2.54206400E-12
   20.3513603         4.97708081E-12
   20.4781532         7.89348448E-12
   20.6049442         1.12369081E-11
   20.7317371         1.49034101E-11
   20.8585300         1.87333361E-11
   20.9853230         2.25080475E-11
   21.1121159         2.59503322E-11
   21.2389088         2.87294077E-11
   21.3657017         3.04711048E-11
   21.4924946         3.07736510E-11
   21.6192856         2.92290706E-11
   21.7460785         2.54499841E-11
   21.8728714         1.91009274E-11
   21.9996643         9.93315152E-12
   22.1264572        -2.17879556E-12
   22.2532501        -1.72007148E-11
   22.3800430        -3.49050927E-11
   22.5068340        -5.48428421E-11
   22.6336269        -7.63232880E-11
   22.7604198        -9.84055823E-11
   22.8872128        -1.19903976E-10
   23.0140057        -1.39409831E-10
   23.1407986        -1.55331789E-10
   23.2675915        -1.65955444E-10
   23.3943844        -1.69522396E-10
   23.5211754        -1.64327121E-10
   23.6479683        -1.48829699E-10
   23.7747612        -1.21779239E-10
   23.9015541        -8.23435209E-11
   24.0283470        -3.02374480E-11
   24.1551399         3.41578224E-11
   24.2819328         1.09693206E-10
   24.4087238         1.94377084E-10
   24.5355167         2.85336421E-10
   24.6623096         3.78821752E-10
   24.7891026         4.70263606E-10
   24.9158955         5.54384150E-10
   25.0426884         6.25367647E-10
   25.1694813         6.77088552E-10
   25.2962742         7.03394065E-10
   25.4230652         6.98431868E-10
   25.5498581         6.57013555E-10
   25.6766510         5.74998216E-10
   25.8034439         4.49676907E-10
   25.9302368         2.80139134E-10
   26.0570297         6.75973097E-11
   26.1838226        -1.84352741E-10
   26.3106136        -4.69559280E-10
   26.4374065        -7.79250053E-10
   26.5641994        -1.10209375E-09
   26.6909924        -1.42440160E-09
   26.8177853        -1.73047354E-09
   26.9445782        -2.00309813E-09
   27.0713711        -2.22418750E-09
   27.1981640        -2.37554465E-09
   27.3249550        -2.43973308E-09
   27.4517479        -2.40102382E-09
   27.5785408        -2.24637442E-09
   27.7053337        -1.96640615E-09
   27.8321266        -1.55632285E-09
   27.9589195        -1.01672171E-09
   28.0857124        -3.54251739E-10
   28.2125034         4.17943596E-10
   28.3392963         1.28003252E-09
   28.4660892         2.20559526E-09
   28.5928822         3.16204263E-09
   28.7196751         4.11137169E-09
   28.8464680         5.01125763E-09
   28.9732609         5.81646331E-09
   29.1000538         6.48054987E-09
   29.2268448         6.95780811E-09
   29.3536377         7.20538740E-09
   29.4804306         7.18549398E-09
   29.6072235         6.86760515E-09
   29.7340164         6.23057250E-09
   29.8608093         5.26451505E-09
   29.9876022         3.97238864E-09
   30.1143932         2.37114106E-09
   30.2411861         4.92346219E-10
   30.3679790        -1.61774483E-09
   30.4947720        -3.89879995E-09
   30.6215649        -6.27767305E-09
   30.7483578        -8.67033201E-09
   30.8751507        -1.09844329E-08
   31.0019417        -1.31224454E-08
   31.1287346        -1.49852717E-08
   31.2555275        -1.64761733E-08
   31.3823204        -1.75049113E-08
   31.5091133        -1.79918977E-08
   31.6359062        -1.78721518E-08
   31.7626991        -1.70989498E-08
   31.8894920        -1.56468687E-08
   32.0162849        -1.35141915E-08
   32.1430779        -1.07244134E-08
   32.2698708        -7.32681960E-09
   32.3966637        -3.39603901E-09
   32.5234528         9.69457292E-10
   32.6502457         5.64987301E-09
   32.7770386         1.05075477E-08
   32.9038315         1.53912545E-08
   33.0306244         2.01411474E-08
   33.1574173         2.45941827E-08
   33.2842102         2.85898061E-08
   33.4110031         3.19756239E-08
   33.5377960         3.46128601E-08
   33.6645889         3.63814081E-08
   33.7913818         3.71841509E-08
   33.9181747         3.69505351E-08
   34.0449677         3.56391645E-08
   34.1717606         3.32393135E-08
   34.2985535         2.97715008E-08
   34.4253426         2.52868713E-08
   34.5521355         1.98657180E-08
   34.6789284         1.36150895E-08
   34.8057213         6.66570266E-09
   34.9325142        -8.31701930E-10
   35.0593071        -8.71035599E-09
   35.1861000        -1.67916490E-08
   35.3128929        -2.48893368E-08
   35.4396858        -3.28136096E-08
   35.5664787        -4.03749567E-08
   35.6932716        -4.73876902E-08
   35.8200645        -5.36731477E-08
   35.9468575        -5.90626392E-08
   36.0736504        -6.34000159E-08
   36.2004433        -6.65440893E-08
   36.3272324        -6.83710581E-08
   36.4540253        -6.87767638E-08
   36.5808182        -6.76791743E-08
   36.7076111        -6.50209770E-08
   36.8344040        -6.07723862E-08
   36.9611969        -5.49340342E-08
   37.0879898        -4.75401762E-08
   37.2147827        -3.86615753E-08
   37.3415756        -2.84084045E-08
   37.4683685        -1.69325087E-08
   37.5951614        -4.42900383E-09
   37.7219543         8.86330032E-09
   37.8487473         2.26627321E-08
   37.9755402         3.66474033E-08
   38.1023293         5.04597395E-08
   38.2291222         6.37131095E-08
   38.3559151         7.60006529E-08
   38.4827080         8.69064039E-08
   38.6095009         9.60183115E-08
   38.7362938         1.02943041E-07
   38.8630867         1.07322194E-07
   38.9898796         1.08849129E-07
   39.1166725         1.07286091E-07
   39.2434654         1.02480435E-07
   39.3702583         9.43795300E-08
   39.4970512         8.30431901E-08
   39.6238441         6.86530655E-08
   39.7506371         5.15178336E-08
   39.8774300         3.20738778E-08
   40.0042191         1.08808003E-08
   40.1310120        -1.13886802E-08
   40.2578049        -3.39643869E-08
   40.3845978        -5.59998838E-08
   40.5113907        -7.65987664E-08
   40.6381836        -9.48453618E-08
   40.7649765        -1.09839128E-07
   40.8917694        -1.20731229E-07
   41.0185623        -1.26762458E-07
   41.1453552        -1.27300609E-07
   41.2721481        -1.21875956E-07
   41.3989410        -1.10213385E-07
   41.5257339        -9.22592847E-08
   41.6525269        -6.82023469E-08
   41.7793198        -3.84864798E-08
   41.9061089        -3.81543996E-09
   42.0329018         3.48518583E-08
   42.1596947         7.63152528E-08
   42.2864876         1.19156688E-07
   42.4132805         1.61772320E-07
   42.5400734         2.02412394E-07
   42.6668663         2.39227717E-07
   42.7936592         2.70321266E-07
   42.9204521         2.93802458E-07
   43.0472450         3.07843010E-07
   43.1740379         3.10730854E-07
   43.3008308         3.00921670E-07
   43.4276237         2.77083501E-07
   43.5544167         2.38135073E-07
   43.6812096         1.83273983E-07
   43.8079987         1.11994773E-07
   43.9347916         2.40952023E-08
   44.0615845        -8.03296061E-08
   44.1883774        -2.00904836E-07
   44.3151703        -3.37005076E-07
   44.4419632        -4.87793898E-07
   44.5687561        -6.52271865E-07
   44.6955490        -8.29331384E-07
   44.8223419        -1.01781598E-06
   44.9491348        -1.21658081E-06
   45.0759277        -1.42455167E-06
   45.2027206        -1.64078062E-06
   45.3295135        -1.86449313E-06
   45.4563065        -2.09512723E-06
   45.5830994        -2.33235755E-06
   45.7098885        -2.57610964E-06
   45.8366814        -2.82655333E-06
   45.9634743        -3.08408653E-06
   46.0902672        -3.34929268E-06
   46.2170601        -3.62289711E-06
   46.3438530        -3.90569494E-06
   46.4706459        -4.19847265E-06
   46.5974388        -4.50192420E-06
   46.7242317        -4.81655297E-06
   46.8510246        -5.14257999E-06
   46.9778175        -5.47984928E-06
   47.1046104        -5.82773782E-06
   47.2314034        -6.18508648E-06
   47.3581963        -6.55013218E-06
   47.4849892        -6.92047252E-06
   47.6117783        -7.29304475E-06
   47.7385712        -7.66413086E-06
   47.8653641        -8.02939394E-06
   47.9921570        -8.38394408E-06
   48.1189499        -8.72241981E-06
   48.2457428        -9.03910768E-06
   48.3725357        -9.32808052E-06
   48.4993286        -9.58336204E-06
   48.6261215        -9.79909510E-06
   48.7529144        -9.96972722E-06
   48.8797073        -1.00902053E-05
   49.0065002        -1.01561463E-05
   49.1332932        -1.01640262E-05
   49.2600861        -1.01113274E-05
   49.3868790        -9.99667282E-06
   49.5136681        -9.81993708E-06
   49.6404610        -9.58230521E-06
   49.7672539        -9.28631016E-06
   49.8940468        -8.93581546E-06
   50.0208397        -8.53595975E-06
   50.1476326        -8.09306403E-06
   50.2744255        -7.61449201E-06
   50.4012184        -7.10847053E-06
   50.5280113        -6.58388853E-06
   50.6548042        -6.05006062E-06
   50.7815971        -5.51647645E-06
   50.9083900        -4.99254656E-06
   51.0351830        -4.48733408E-06
   51.1619759        -4.00930458E-06
   51.2887688        -3.56608825E-06
   51.4155579        -3.16427827E-06
   51.5423508        -2.80923564E-06
   51.6691437        -2.50497055E-06
   51.7959366        -2.25403232E-06
   51.9227295        -2.05747119E-06
   52.0495224        -1.91483446E-06
   52.1763153        -1.82421297E-06
   52.3031082        -1.78234973E-06
   52.4299011        -1.78476012E-06
   52.5566940        -1.82592021E-06
   52.6834869        -1.89945922E-06
   52.8102798        -1.99839360E-06
   52.9370728        -2.11536417E-06
   53.0638657        -2.24287942E-06
   53.1906586        -2.37355653E-06
   53.3174477        -2.50035373E-06
   53.4442406        -2.61677542E-06
   53.5710335        -2.71705721E-06
   53.6978264        -2.79632923E-06
   53.8246193        -2.85070155E-06
   53.9514122        -2.87738453E-06
   54.0782051        -2.87470220E-06
   54.2049980        -2.84209796E-06
   54.3317909        -2.78011703E-06
   54.4585838        -2.69032626E-06
   54.5853767        -2.57523084E-06
   54.7121696        -2.43815157E-06
   54.8389626        -2.28310955E-06
   54.9657555        -2.11467091E-06
   55.0925484        -1.93780284E-06
   55.2193375        -1.75772891E-06
   55.3461304        -1.57978559E-06
   55.4729233        -1.40928887E-06
   55.5997162        -1.25140434E-06
   55.7265091        -1.11104202E-06
   55.8533020        -9.92762921E-07
   55.9800949        -9.00686302E-07
   56.1068878        -8.38423830E-07
   56.2336807        -8.09019184E-07
   56.3604736        -8.14910038E-07
   56.4872665        -8.57863597E-07
   56.6140594        -9.38955964E-07
   56.7408524        -1.05853746E-06
   56.8676453        -1.21620292E-06
   56.9944382        -1.41075759E-06
   57.1212273        -1.64020571E-06
   57.2480202        -1.90170010E-06
   57.3748131        -2.19156300E-06
   57.5016060        -2.50524454E-06
   57.6283989        -2.83734653E-06
   57.7551918        -3.18161347E-06
   57.8819847        -3.53099244E-06
   58.0087776        -3.87767386E-06
   58.1355705        -4.21317782E-06
   58.2623634        -4.52846552E-06
   58.3891563        -4.81407142E-06
   58.5159492        -5.06027936E-06
   58.6427422        -5.25731457E-06
   58.7695351        -5.39556913E-06
   58.8963280        -5.46585125E-06
   59.0231171        -5.45965440E-06
   59.1499100        -5.36943207E-06
   59.2767029        -5.18886554E-06
   59.4034958        -4.91315859E-06
   59.5302887        -4.53926805E-06
   59.6570816        -4.06615982E-06
   59.7838745        -3.49496008E-06
   59.9106674        -2.82913584E-06
   60.0374603        -2.07456264E-06
   60.1642532        -1.23953544E-06
   60.2910461        -3.34752116E-07
   60.4178391         6.26845804E-07
   60.5446320         1.63024083E-06
   60.6714249         2.65861900E-06
   60.7982178         3.69372037E-06
   60.9250069         4.71622525E-06
   61.0517998         5.70622115E-06
   61.1785927         6.64370691E-06
   61.3053856         7.50910567E-06
   61.4321785         8.28382781E-06
   61.5589714         8.95079029E-06
   61.6857643         9.49493824E-06
   61.8125572         9.90374338E-06
   61.9393501         1.01675842E-05
   62.0661430         1.02801569E-05
   62.1929359         1.02386630E-05
   62.3197289         1.00440448E-05
   62.4465218         9.70103247E-06
   62.5733147         9.21805713E-06
   62.7001076         8.60712044E-06
   62.8268967         7.88352827E-06
   62.9536896         7.06546280E-06
   63.0804825         6.17356000E-06
   63.2072754         5.23029667E-06
   63.3340683         4.25938197E-06
   63.4608612         3.28507463E-06
   63.5876541         2.33147671E-06
   63.7144470         1.42180693E-06
   63.8412399         5.77724791E-07
   63.9680328        -1.81329128E-07
   64.0948257        -8.38720098E-07
   64.2216187        -1.38111159E-06
   64.3484116        -1.79888320E-06
   64.4752045        -2.08638744E-06
   64.6019974        -2.24212567E-06
   64.7287903        -2.26876136E-06
   64.8555832        -2.17298725E-06
   64.9823761        -1.96530368E-06
   65.1091690        -1.65963138E-06
   65.2359619        -1.27282988E-06
   65.3627548        -8.24116114E-07
   65.4895477        -3.34416484E-07
   65.6163330         1.74344947E-07
   65.7431259         6.79964501E-07
   65.8699188         1.16070453E-06
   65.9967117         1.59598596E-06
   66.1235046         1.96704195E-06
   66.2502975         2.25749341E-06
   66.3770905         2.45383285E-06
   66.5038834         2.54578458E-06
   66.6306763         2.52656264E-06
   66.7574692         2.39297674E-06
   66.8842621         2.14542138E-06
   67.0110550         1.78772098E-06
   67.1378479         1.32687956E-06
   67.2646408         7.72713008E-07
   67.3914337         1.37363656E-07
   67.5182266        -5.65222535E-07
   67.6450195        -1.31985291E-06
   67.7718124        -2.11069028E-06
   67.8986053        -2.92184609E-06
   68.0253983        -3.73794046E-06
   68.1521912        -4.54459678E-06
   68.2789841        -5.32889453E-06
   68.4057770        -6.07967695E-06
   68.5325699        -6.78783135E-06
   68.6593628        -7.44640738E-06
   68.7861557        -8.05064519E-06
   68.9129486        -8.59791453E-06
   69.0397415        -9.08749189E-06
   69.1665344        -9.52036680E-06
   69.2933273        -9.89884848E-06
   69.4201126        -1.02261993E-05
   69.5469055        -1.05062363E-05
   69.6736984        -1.07428832E-05
   69.8004913        -1.09397806E-05
   69.9272842        -1.10999263E-05
   70.0540771        -1.12252928E-05
   70.1808701        -1.13166579E-05
   70.3076630        -1.13733613E-05
   70.4344559        -1.13932747E-05
   70.5612488        -1.13728011E-05
   70.6880417        -1.13069646E-05
   70.8148346        -1.11896270E-05
   70.9416275        -1.10137516E-05
   71.0684204        -1.07717196E-05
   71.1952133        -1.04557739E-05
   71.3220062        -1.00583829E-05
   71.4487991        -9.57273551E-06
   71.5755920        -8.99312727E-06
   71.7023849        -8.31541729E-06
   71.8291779        -7.53736686E-06
   71.9559708        -6.65895868E-06
   72.0827637        -5.68267205E-06
   72.2095566        -4.61360560E-06
   72.3363495        -3.45958847E-06
   72.4631424        -2.23115080E-06
   72.5899353        -9.41420069E-07
   72.7167282         3.94055320E-07
   72.8435211         1.75759249E-06
   72.9703140         3.12971338E-06
   73.0971069         4.48953142E-06
   73.2238922         5.81521545E-06
   73.3506851         7.08445896E-06
   73.4774780         8.27498479E-06
   73.6042709         9.36503693E-06
   73.7310638         1.03338798E-05
   73.8578568         1.11622667E-05
   73.9846497         1.18328671E-05
   74.1114426         1.23306527E-05
   74.2382355         1.26432360E-05
   74.3650284         1.27611474E-05
   74.4918213         1.26780578E-05
   74.6186142         1.23909049E-05
   74.7454071         1.19000115E-05
   74.8722000         1.12090966E-05
   74.9989929         1.03252441E-05
   75.1257858         9.25884160E-06
   75.2525787         8.02343220E-06
   75.3793716         6.63553055E-06
   75.5061646         5.11445660E-06
   75.6329575         3.48205731E-06
   75.7597504         1.76239234E-06
   75.8865433        -1.84730897E-08
   76.0133362        -1.83287978E-06
   76.1401291        -3.65187179E-06
   76.2669220        -5.44559180E-06
   76.3937149        -7.18361889E-06
   76.5205078        -8.83540724E-06
   76.6473007        -1.03707234E-05
   76.7740936        -1.17599720E-05
   76.9008865        -1.29746868E-05
   77.0276718        -1.39880367E-05
   77.1544647        -1.47751061E-05
   77.2812576        -1.53134570E-05
   77.4080505        -1.55835132E-05
   77.5348434        -1.55689886E-05
   77.6616364        -1.52572202E-05
   77.7884293        -1.46395651E-05
   77.9152222        -1.37116058E-05
   78.0420151        -1.24734643E-05
   78.1688080        -1.09298571E-05
   78.2956009        -9.09033952E-06
   78.4223938        -6.96908046E-06
   78.5491867        -4.58490467E-06
   78.6759796        -1.96105088E-06
   78.8027725         8.75104149E-07
   78.9295654         3.89241495E-06
   79.0563583         7.05651837E-06
   79.1831512         1.03302773E-05
   79.3099442         1.36744657E-05
   79.4367371         1.70484491E-05
   79.5635300         2.04108237E-05
   79.6903229         2.37202603E-05
   79.8171158         2.69361062E-05
   79.9439087         3.00192332E-05
   80.0707016         3.29325376E-05
   80.1974945         3.56417477E-05
   80.3242874         3.81157879E-05
   80.4510803         4.03273589E-05
   80.5778732         4.22533230E-05
   80.7046585         4.38748903E-05
   80.8314514         4.51778724E-05
   80.9582443         4.61527161E-05
   81.0850372         4.67944956E-05
   81.2118301         4.71028106E-05
   81.3386230         4.70815357E-05
   81.4654160         4.67385908E-05
   81.5922089         4.60856245E-05
   81.7190018         4.51376036E-05
   81.8457947         4.39124233E-05
   81.9725876         4.24304926E-05
   82.0993805         4.07143198E-05
   82.2261734         3.87880682E-05
   82.3529663         3.66772147E-05
   82.4797592         3.44080618E-05
   82.6065521         3.20075233E-05
   82.7333450         2.95026948E-05
   82.8601379         2.69205921E-05
   82.9869308         2.42878505E-05
   83.1137238         2.16305434E-05
   83.2405167         1.89738294E-05
   83.3673096         1.63419136E-05
   83.4941025         1.37575707E-05
   83.6208954         1.12422922E-05
   83.7476883         8.81570668E-06
   83.8744812         6.49577896E-06
   84.0012741         4.29828879E-06
   84.1280670         2.23669394E-06
   84.2548599         3.22156552E-07
   84.3816528        -1.43691670E-06
   84.5084381        -3.03488855E-06
   84.6352310        -4.46895820E-06
   84.7620239        -5.73944044E-06
   84.8888168        -6.84960060E-06
   85.0156097        -7.80574192E-06
   85.1424026        -8.61712488E-06
   85.2691956        -9.29580347E-06
   85.3959885        -9.85637143E-06
   85.5227814        -1.03157845E-05
   85.6495743        -1.06928228E-05
   85.7763672        -1.10078508E-05
   85.9031601        -1.12821435E-05
   86.0299530        -1.15375024E-05
   86.1567459        -1.17955979E-05
   86.2835388        -1.20774102E-05
   86.4103317        -1.24027210E-05
   86.5371246        -1.27894127E-05
   86.6639175        -1.32530986E-05
   86.7907104        -1.38066207E-05
   86.9175034        -1.44596124E-05
   87.0442963        -1.52183948E-05
   87.1710892        -1.60855252E-05
   87.2978821        -1.70599815E-05
   87.4246750        -1.81370833E-05
   87.5514679        -1.93087653E-05
   87.6782608        -2.05637134E-05
   87.8050537        -2.18879522E-05
   87.9318466        -2.32652110E-05
   88.0586395        -2.46775016E-05
   88.1854324        -2.61058340E-05
   88.3122177        -2.75308194E-05
   88.4390106        -2.89333238E-05
   88.5658035        -3.02953140E-05
   88.6925964        -3.16001933E-05
   88.8193893        -3.28336791E-05
   88.9461823        -3.39841681E-05
   89.0729752        -3.50431219E-05
   89.1997681        -3.60053382E-05
   89.3265610        -3.68692126E-05
   89.4533539        -3.76366297E-05
   89.5801468        -3.83128936E-05
   89.7069397        -3.89066045E-05
   89.8337326        -3.94290291E-05
   89.9605255        -3.98938682E-05
   90.0873184        -4.03165468E-05
   90.2141113        -4.07135994E-05
   90.3409042        -4.11019937E-05
   90.4676971        -4.14983951E-05
   90.5944901        -4.19184689E-05
   90.7212830        -4.23762540E-05
   90.8480759        -4.28833082E-05
   90.9748688        -4.34485410E-05
   91.1016617        -4.40774820E-05
   91.2284546        -4.47721213E-05
   91.3552475        -4.55306545E-05
   91.4820404        -4.63475262E-05
   91.6088333        -4.72134852E-05
   91.7356262        -4.81158313E-05
   91.8624191        -4.90388520E-05
   91.9892120        -4.99642265E-05
   92.1159973        -5.08716985E-05
   92.2427902        -5.17397239E-05
   92.3695831        -5.25461437E-05
   92.4963760        -5.32689919E-05
   92.6231689        -5.38872046E-05
   92.7499619        -5.43812966E-05
   92.8767548        -5.47340096E-05
   93.0035477        -5.49308934E-05
   93.1303406        -5.49606884E-05
   93.2571335        -5.48157550E-05
   93.3839264        -5.44920949E-05
   93.5107193        -5.39895664E-05
   93.6375122        -5.33117200E-05
   93.7643051        -5.24655406E-05
   93.8910980        -5.14611856E-05
   94.0178909        -5.03116098E-05
   94.1446838        -4.90318853E-05
   94.2714767        -4.76387177E-05
   94.3982697        -4.61498785E-05
   94.5250626        -4.45834485E-05
   94.6518555        -4.29573411E-05
   94.7786484        -4.12886911E-05
   94.9054413        -3.95933384E-05
   95.0322342        -3.78854165E-05
   95.1590271        -3.61770399E-05
   95.2858200        -3.44780019E-05
   95.4126129        -3.27958587E-05
   95.5394058        -3.11355761E-05
   95.6661987        -2.94999172E-05
   95.7929916        -2.78893494E-05
   95.9197769        -2.63024140E-05
   96.0465698        -2.47359894E-05
   96.1733627        -2.31855101E-05
   96.3001556        -2.16453482E-05
   96.4269485        -2.01091752E-05
   96.5537415        -1.85702011E-05
   96.6805344        -1.70215590E-05
   96.8073273        -1.54564368E-05
   96.9341202        -1.38682944E-05
   97.0609131        -1.22510828E-05
   97.1877060        -1.05992376E-05
   97.3144989        -8.90780393E-06
   97.4412918        -7.17239300E-06
   97.5680847        -5.38920449E-06
   97.6948776        -3.55497036E-06
   97.8216705        -1.66694724E-06
   97.9484634         2.77079863E-07
   98.0752563         2.27884652E-06