  -4.50000000         0.00000000    
  -4.37320757         0.00000000    
  -4.24641466         0.00000000    
  -4.11962223         0.00000000    
  -3.99282932         0.00000000    
  -3.86603665         0.00000000    
  -3.73924398         0.00000000    
  -3.61245155         6.17940218E-32
  -3.48565888         1.80417412E-30
  -3.35886621        -1.07181575E-29
  -3.23207355        -1.33378930E-28
  -3.10528088        -1.02022797E-27
  -2.97848821        -5.23570218E-27
  -2.85169554        -1.95766680E-26
  -2.72490287        -5.53463332E-26
  -2.59811020        -1.16248848E-25
  -2.47131753        -1.55101258E-25
  -2.34452486         1.52415276E-26
  -2.21773219         8.30191202E-25
  -2.09093952         2.98077838E-24
  -1.96414697         7.09005778E-24
  -1.83735430         1.28341382E-23
  -1.71056163         1.76142432E-23
  -1.58376896         1.56808367E-23
  -1.45697629        -3.53773474E-25
  -1.33018374        -3.32646898E-23
  -1.20339108        -6.95186765E-23
  -1.07659841        -6.63466163E-23
 -0.949805737         5.05430566E-23
 -0.823013067         3.60272624E-22
 -0.696220458         8.75131845E-22
 -0.569427788         1.42761872E-21
 -0.442635119         1.55988876E-21
 -0.315842479         5.09234933E-22
 -0.189049825        -2.58561857E-21
  -6.22571707E-02    -8.16181049E-21
   6.45354837E-02    -1.54227098E-20
  0.191328138        -2.14914189E-20
  0.318120778        -2.10296922E-20
  0.444913447        -6.97497353E-21
  0.571706116         2.70720026E-20
  0.698498726         8.27937806E-20
  0.825291395         1.52319558E-19
  0.952084064         2.14527521E-19
   1.07887673         2.35127847E-19
   1.20566940         1.73000301E-19
   1.33246195        -6.22811869E-21
   1.45925462        -3.11203803E-19
   1.58604729        -7.05823342E-19
   1.71283996        -1.09844229E-18
   1.83963263        -1.34824494E-18
   1.96642530        -1.29467735E-18
   2.09321785        -8.08773517E-19
   2.22001052         1.44600541E-19
   2.34680319         1.45393340E-18
   2.47359586         2.84260783E-18
   2.60038853         3.90534963E-18
   2.72718120         4.20504502E-18
   2.85397387         3.41175586E-18
   2.98076653         1.44062417E-18
   3.10755920        -1.47052085E-18
   3.23435187        -4.79879113E-18
   3.36114454        -7.91286268E-18
   3.48793697        -1.03571988E-17
   3.61472964        -1.21473045E-17
   3.74152231        -1.39298340E-17
   3.86831498        -1.68546024E-17
   3.99510765        -2.20647914E-17
   4.12190056        -2.98384263E-17
   4.24869299        -3.85855139E-17
   4.37548542        -4.40694831E-17
   4.50227833        -3.93097039E-17
   4.62907076        -1.55699065E-17
   4.75586367         3.53914916E-17
   4.88265610         1.18020250E-16
   5.00944901         2.29291634E-16
   5.13624144         3.55748517E-16
   5.26303434         4.72532470E-16
   5.38982677         5.45534587E-16
   5.51661968         5.37228582E-16
   5.64341211         4.15839549E-16
   5.77020502         1.66420467E-16
   5.89699745        -1.98569735E-16
   6.02379036        -6.32152759E-16
   6.15058279        -1.05205632E-15
   6.27737522        -1.34828375E-15
   6.40416813        -1.39948615E-15
   6.53096056        -1.09662677E-15
   6.65775347        -3.70484482E-16
   6.78454590         7.81947994E-16
   6.91133881         2.27774635E-15
   7.03813124         3.94015417E-15
   7.16492414         5.50619061E-15
   7.29171658         6.65117799E-15
   7.41850948         7.02896654E-15
   7.54530191         6.32406149E-15
   7.67209482         4.30966340E-15
   7.79888725         9.04317362E-16
   7.92567968        -3.78086963E-15
   8.05247211        -9.41215303E-15
   8.17926502        -1.54271076E-14
   8.30605793        -2.10578337E-14
   8.43285084        -2.53864939E-14
   8.55964279        -2.74332728E-14
   8.68643570        -2.62733527E-14
   8.81322861        -2.11753866E-14
   8.94002151        -1.17492423E-14
   9.06681347         1.91312937E-15
   9.19360638         1.91237373E-14
   9.32039928         3.85332228E-14
   9.44719219         5.81353271E-14
   9.57398415         7.53592067E-14
   9.70077705         8.72603923E-14
   9.82756996         9.08124148E-14
   9.95436192         8.32873402E-14
   10.0811548         6.27006314E-14
   10.2079477         2.82805328E-14
   10.3347406        -1.90906878E-14
   10.4615326        -7.65261471E-14
   10.5883255        -1.38942121E-13
   10.7151184        -1.99089253E-13
   10.8419113        -2.47862467E-13
   10.9687033        -2.74924343E-13
   11.0954962        -2.69649862E-13
   11.2222891        -2.22363550E-13
   11.3490820        -1.25801320E-13
   11.4758739         2.33141177E-14
   11.6026669         2.22729414E-13
   11.7294598         4.63325992E-13
   11.8562517         7.28188235E-13
   11.9830446         9.92266599E-13
   12.1098375         1.22281373E-12
   12.2366304         1.38072886E-12
   12.3634224         1.42289576E-12
   12.4902153         1.30551613E-12
   12.6170082         9.88357183E-13
   12.7438011         4.39734918E-13
   12.8705931        -3.58065492E-13
   12.9973860        -1.40330477E-12
   13.1241789        -2.66972945E-12
   13.2509708        -4.10248224E-12
   13.3777637        -5.61556834E-12
   13.5045567        -7.09145806E-12
   13.6313496        -8.38335651E-12
   13.7581415        -9.32055214E-12
   13.8849344        -9.71708564E-12
   14.0117273        -9.38376720E-12
   14.1385202        -8.14324042E-12
   14.2653122        -5.84751084E-12
   14.3921051        -2.39704740E-12
   14.5188980         2.23986042E-12
   14.6456909         8.00897976E-12
   14.7724829         1.47550028E-11
   14.8992758         2.22112745E-11
   15.0260687         2.99961722E-11
   15.1528606         3.76177527E-11
   15.2796535         4.44878925E-11
   15.4064465         4.99466302E-11
   15.5332394         5.32966379E-11
   15.6600313         5.38470865E-11
   15.7868242         5.09648920E-11
   15.9136171         4.41311120E-11
   16.0404091         3.29986628E-11
   16.1672020         1.74474185E-11
   16.2939949        -2.36788518E-12
   16.4207878        -2.59815433E-11
   16.5475807        -5.25971454E-11
   16.6743736        -8.10879211E-11
   16.8011646        -1.10019986E-10
   16.9279575        -1.37700240E-10
   17.0547504        -1.62248492E-10
   17.1815434        -1.81692564E-10
   17.3083363        -1.94082098E-10
   17.4351292        -1.97616090E-10
   17.5619221        -1.90777102E-10
   17.6887150        -1.72463682E-10
   17.8155060        -1.42112461E-10
   17.9422989        -9.97996893E-11
   18.0690918        -4.63145529E-11
   18.1958847         1.68051267E-11
   18.3226776         8.72798986E-11
   18.4494705         1.62143382E-10
   18.5762634         2.37845688E-10
   18.7030544         3.10403814E-10
   18.8298473         3.75594306E-10
   18.9566402         4.29179553E-10
   19.0834332         4.67157202E-10
   19.2102261         4.86017837E-10
   19.3370190         4.82996643E-10
   19.4638119         4.56301996E-10
   19.5906048         4.05303513E-10
   19.7173958         3.30666855E-10
   19.8441887         2.34420094E-10
   19.9709816         1.19943305E-10
   20.0977745        -8.12457133E-12
   20.2245674        -1.44061818E-10
   20.3513603        -2.81318357E-10
   20.4781532        -4.12839068E-10
   20.6049442        -5.31440336E-10
   20.7317371        -6.30221264E-10
   20.8585300        -7.02985670E-10
   20.9853230        -7.44650730E-10
   21.1121159        -7.51614826E-10
   21.2389088        -7.22059190E-10
   21.3657017        -6.56160848E-10
   21.4924946        -5.56196256E-10
   21.6192856        -4.26521790E-10
   21.7460785        -2.73423950E-10
   21.8728714        -1.04841746E-10
   21.9996643         7.00334235E-11
   22.1264572         2.41259041E-10
   22.2532501         3.98720862E-10
   22.3800430         5.32757671E-10
   22.5068340         6.34791997E-10
   22.6336269         6.97931268E-10
   22.7604198         7.17490234E-10
   22.8872128         6.91402546E-10
   23.0140057         6.20482221E-10
   23.1407986         5.08509013E-10
   23.2675915         3.62125691E-10
   23.3943844         1.90525165E-10
   23.5211754         4.96198612E-12
   23.6479683        -1.81922283E-10
   23.7747612        -3.56896623E-10
   23.9015541        -5.07037523E-10
   24.0283470        -6.20653196E-10
   24.1551399        -6.88182067E-10
   24.2819328        -7.02995273E-10
   24.4087238        -6.62042032E-10
   24.5355167        -5.66272806E-10
   24.6623096        -4.20813578E-10
   24.7891026        -2.34816000E-10
   24.9158955        -2.10231155E-11
   25.0426884         2.04987305E-10
   25.1694813         4.25829205E-10
   25.2962742         6.23570084E-10
   25.4230652         7.81124387E-10
   25.5498581         8.83743079E-10
   25.6766510         9.20433507E-10
   25.8034439         8.85256091E-10
   25.9302368         7.78356435E-10
   26.0570297         6.06626027E-10
   26.1838226         3.83938270E-10
   26.3106136         1.30852607E-10
   26.4374065        -1.26214539E-10
   26.5641994        -3.56380897E-10
   26.6909924        -5.26198196E-10
   26.8177853        -6.02007721E-10
   26.9445782        -5.52590307E-10
   27.0713711        -3.52071372E-10
   27.1981640         1.72264408E-11
   27.3249550         5.62068669E-10
   27.4517479         1.27599886E-09
   27.5785408         2.13758433E-09
   27.7053337         3.10944515E-09
   27.8321266         4.13823775E-09
   27.9589195         5.15563769E-09
   28.0857124         6.08048500E-09
   28.2125034         6.82203183E-09
   28.3392963         7.28425409E-09
   28.4660892         7.37111794E-09
   28.5928822         6.99257674E-09
   28.7196751         6.07100281E-09
   28.8464680         4.54781635E-09
   28.9732609         2.38982234E-09
   29.1000538        -4.04956069E-10
   29.2268448        -3.80266041E-09
   29.3536377        -7.73014097E-09
   29.4804306        -1.20734667E-08
   29.6072235        -1.66783760E-08
   29.7340164        -2.13529390E-08
   29.8608093        -2.58726391E-08
   29.9876022        -2.99876923E-08
   30.1143932        -3.34325954E-08
   30.2411861        -3.59375179E-08
   30.3679790        -3.72412146E-08
   30.4947720        -3.71049502E-08
   30.6215649        -3.53267211E-08
   30.7483578        -3.17552100E-08
   30.8751507        -2.63027697E-08
   31.0019417        -1.89565519E-08
   31.1287346        -9.78722703E-09
   31.2555275         1.04527098E-09
   31.3823204         1.32898768E-08
   31.5091133         2.66060987E-08
   31.6359062         4.05704910E-08
   31.7626991         5.46868009E-08
   31.8894920         6.84007233E-08
   32.0162849         8.11181522E-08
   32.1430779         9.22266281E-08
   32.2698708         1.01119262E-07
   32.3966637         1.07220473E-07
   32.5234528         1.10011641E-07
   32.6502457         1.09057062E-07
   32.7770386         1.04027329E-07
   32.9038315         9.47206473E-08
   33.0306244         8.10798682E-08
   33.1574173         6.32048511E-08
   33.2842102         4.13593284E-08
   33.4110031         1.59717306E-08
   33.5377960        -1.23706343E-08
   33.6645889        -4.29334897E-08
   33.7913818        -7.48540927E-08
   33.9181747        -1.07165235E-07
   34.0449677        -1.38824291E-07
   34.1717606        -1.68746368E-07
   34.2985535        -1.95840144E-07
   34.4253426        -2.19045361E-07
   34.5521355        -2.37370230E-07
   34.6789284        -2.49927780E-07
   34.8057213        -2.55969326E-07
   34.9325142        -2.54913658E-07
   35.0593071        -2.46371627E-07
   35.1861000        -2.30164247E-07
   35.3128929        -2.06333780E-07
   35.4396858        -1.75148159E-07
   35.5664787        -1.37097658E-07
   35.6932716        -9.28843704E-08
   35.8200645        -4.34052509E-08
   35.9468575         1.02710684E-08
   36.0736504         6.69325715E-08
   36.2004433         1.25255823E-07
   36.3272324         1.83841195E-07
   36.4540253         2.41248927E-07
   36.5808182         2.96036234E-07
   36.7076111         3.46792291E-07
   36.8344040         3.92172836E-07
   36.9611969         4.30929845E-07
   37.0879898         4.61939408E-07
   37.2147827         4.84223904E-07
   37.3415756         4.96971211E-07
   37.4683685         4.99548321E-07
   37.5951614         4.91511173E-07
   37.7219543         4.72610850E-07
   37.8487473         4.42795510E-07
   37.9755402         4.02210617E-07
   38.1023293         3.51195524E-07
   38.2291222         2.90279246E-07
   38.3559151         2.20174726E-07
   38.4827080         1.41771977E-07
   38.6095009         5.61308795E-08
   38.7362938        -3.55266607E-08
   38.8630867        -1.31825331E-07
   38.9898796        -2.31245892E-07
   39.1166725        -3.32136068E-07
   39.2434654        -4.32723368E-07
   39.3702583        -5.31130354E-07
   39.4970512        -6.25392829E-07
   39.6238441        -7.13482336E-07
   39.7506371        -7.93331765E-07
   39.8774300        -8.62865591E-07
   40.0042191        -9.20035745E-07
   40.1310120        -9.62858394E-07
   40.2578049        -9.89457703E-07
   40.3845978        -9.98108817E-07
   40.5113907        -9.87284693E-07
   40.6381836        -9.55700671E-07
   40.7649765        -9.02357328E-07
   40.8917694        -8.26579708E-07
   41.0185623        -7.28050168E-07
   41.1453552        -6.06833396E-07
   41.2721481        -4.63389881E-07
   41.3989410        -2.98580972E-07
   41.5257339        -1.13658537E-07
   41.6525269         8.97582311E-08
   41.7793198         3.09718615E-07
   41.9061089         5.43991177E-07
   42.0329018         7.90125227E-07
   42.1596947         1.04552453E-06
   42.2864876         1.30752710E-06
   42.4132805         1.57349496E-06
   42.5400734         1.84090072E-06
   42.6668663         2.10741814E-06
   42.7936592         2.37100448E-06
   42.9204521         2.62997651E-06
   43.0472450         2.88307501E-06
   43.1740379         3.12951124E-06
   43.3008308         3.36900052E-06
   43.4276237         3.60177023E-06
   43.5544167         3.82855342E-06
   43.6812096         4.05055698E-06
   43.8079987         4.26940824E-06
   43.9347916         4.48708579E-06
   44.0615845         4.70583063E-06
   44.1883774         4.92804338E-06
   44.3151703         5.15617239E-06
   44.4419632         5.39259372E-06
   44.5687561         5.63949106E-06
   44.6955490         5.89873616E-06
   44.8223419         6.17178284E-06
   44.9491348         6.45956879E-06
   45.0759277         6.76243508E-06
   45.2027206         7.08006701E-06
   45.3295135         7.41145914E-06
   45.4563065         7.75490389E-06
   45.5830994         8.10800520E-06
   45.7098885         8.46772036E-06
   45.8366814         8.83043049E-06
   45.9634743         9.19202375E-06
   46.0902672         9.54800817E-06
   46.2170601         9.89363707E-06
   46.3438530         1.02240456E-05
   46.4706459         1.05343997E-05
   46.5974388         1.08200329E-05
   46.7242317         1.10765886E-05
   46.8510246         1.13001670E-05
   46.9778175         1.14874256E-05
   47.1046104         1.16356941E-05
   47.2314034         1.17430400E-05
   47.3581963         1.18083435E-05
   47.4849892         1.18313219E-05
   47.6117783         1.18125236E-05
   47.7385712         1.17533182E-05
   47.8653641         1.16558849E-05
   47.9921570         1.15230669E-05
   48.1189499         1.13583937E-05
   48.2457428         1.11658965E-05
   48.3725357         1.09500570E-05
   48.4993286         1.07156384E-05
   48.6261215         1.04676346E-05
   48.7529144         1.02111071E-05
   48.8797073         9.95108803E-06
   49.0065002         9.69248686E-06
   49.1332932         9.43997111E-06
   49.2600861         9.19794275E-06
   49.3868790         8.97042992E-06
   49.5136681         8.76105423E-06
   49.6404610         8.57300256E-06
   49.7672539         8.40902067E-06
   49.8940468         8.27138683E-06
   50.0208397         8.16191823E-06
   50.1476326         8.08201185E-06
   50.2744255         8.03264538E-06
   50.4012184         8.01440183E-06
   50.5280113         8.02746945E-06
   50.6548042         8.07172273E-06
   50.7815971         8.14668510E-06
   50.9083900         8.25156803E-06
   51.0351830         8.38527103E-06
   51.1619759         8.54637801E-06
   51.2887688         8.73317003E-06
   51.4155579         8.94361619E-06
   51.5423508         9.17531270E-06
   51.6691437         9.42554470E-06
   51.7959366         9.69122721E-06
   51.9227295         9.96889321E-06
   52.0495224         1.02547265E-05
   52.1763153         1.05445333E-05
   52.3031082         1.08337781E-05
   52.4299011         1.11176232E-05
   52.5566940         1.13909618E-05
   52.6834869         1.16485089E-05
   52.8102798         1.18848338E-05
   52.9370728         1.20945269E-05
   53.0638657         1.22722404E-05
   53.1906586         1.24128583E-05
   53.3174477         1.25115894E-05
   53.4442406         1.25641500E-05
   53.5710335         1.25668575E-05
   53.6978264         1.25167517E-05
   53.8246193         1.24117769E-05
   53.9514122         1.22508318E-05
   54.0782051         1.20338773E-05
   54.2049980         1.17620148E-05
   54.3317909         1.14375134E-05
   54.4585838         1.10638230E-05
   54.5853767         1.06455718E-05
   54.7121696         1.01884843E-05
   54.8389626         9.69936082E-06
   54.9657555         9.18590104E-06
   55.0925484         8.65660786E-06
   55.2193375         8.12063718E-06
   55.3461304         7.58757824E-06
   55.4729233         7.06730498E-06
   55.5997162         6.56975499E-06
   55.7265091         6.10469988E-06
   55.8533020         5.68158157E-06
   55.9800949         5.30929537E-06
   56.1068878         4.99598718E-06
   56.2336807         4.74891385E-06
   56.3604736         4.57429724E-06
   56.4872665         4.47715365E-06
   56.6140594         4.46126160E-06
   56.7408524         4.52902987E-06
   56.8676453         4.68153712E-06
   56.9944382         4.91842684E-06
   57.1212273         5.23800963E-06
   57.2480202         5.63724188E-06
   57.3748131         6.11182259E-06
   57.5016060         6.65627431E-06
   57.6283989         7.26405915E-06
   57.7551918         7.92763421E-06
   57.8819847         8.63868081E-06
   58.0087776         9.38812991E-06
   58.1355705         1.01663891E-05
   58.2623634         1.09634111E-05
   58.3891563         1.17688860E-05
   58.5159492         1.25723491E-05
   58.6427422         1.33633284E-05
   58.7695351         1.41314786E-05
   58.8963280         1.48666877E-05
   59.0231171         1.55592461E-05
   59.1499100         1.61999178E-05
   59.2767029         1.67800736E-05
   59.4034958         1.72918008E-05
   59.5302887         1.77279890E-05
   59.6570816         1.80824791E-05
   59.7838745         1.83500924E-05
   59.9106674         1.85267472E-05
   60.0374603         1.86095331E-05
   60.1642532         1.85967529E-05
   60.2910461         1.84880228E-05
   60.4178391         1.82842050E-05
   60.5446320         1.79875569E-05
   60.6714249         1.76015892E-05
   60.7982178         1.71311440E-05
   60.9250069         1.65822621E-05
   61.0517998         1.59621486E-05
   61.1785927         1.52790726E-05
   61.3053856         1.45422755E-05
   61.4321785         1.37617080E-05
   61.5589714         1.29480013E-05
   61.6857643         1.21122030E-05
   61.8125572         1.12656235E-05
   61.9393501         1.04195924E-05
   62.0661430         9.58535475E-06
   62.1929359         8.77372440E-06
   62.3197289         7.99504505E-06
   62.4465218         7.25889913E-06
   62.5733147         6.57403962E-06
   62.7001076         5.94819221E-06
   62.8268967         5.38800441E-06
   62.9536896         4.89890135E-06
   63.0804825         4.48504898E-06
   63.2072754         4.14939132E-06
   63.3340683         3.89360548E-06
   63.4608612         3.71814326E-06
   63.5876541         3.62234277E-06
   63.7144470         3.60447257E-06
   63.8412399         3.66182553E-06
   63.9680328         3.79091807E-06
   64.0948257         3.98753582E-06
   64.2216187         4.24690552E-06
   64.3484116         4.56386715E-06
   64.4752045         4.93292146E-06
   64.6019974         5.34842547E-06
   64.7287903         5.80463711E-06
   64.8555832         6.29586066E-06
   64.9823761         6.81647043E-06
   65.1091690         7.36099719E-06
   65.2359619         7.92412447E-06
   65.3627548         8.50075139E-06
   65.4895477         9.08595939E-06
   65.6163330         9.67499363E-06
   65.7431259         1.02632839E-05
   65.8699188         1.08464001E-05
   65.9967117         1.14200329E-05
   66.1235046         1.19799934E-05
   66.2502975         1.25222132E-05
   66.3770905         1.30427088E-05
   66.5038834         1.35377022E-05
   66.6306763         1.40035754E-05
   66.7574692         1.44369715E-05
   66.8842621         1.48349000E-05
   67.0110550         1.51947688E-05
   67.1378479         1.55145062E-05
   67.2646408         1.57927152E-05
   67.3914337         1.60286509E-05
   67.5182266         1.62224060E-05
   67.6450195         1.63750265E-05
   67.7718124         1.64883750E-05
   67.8986053         1.65653419E-05
   68.0253983         1.66097125E-05
   68.1521912         1.66262143E-05
   68.2789841         1.66202917E-05
   68.4057770         1.65981237E-05
   68.5325699         1.65664042E-05
   68.6593628         1.65321162E-05
   68.7861557         1.65024121E-05
   68.9129486         1.64843223E-05
   69.0397415         1.64845278E-05
   69.1665344         1.65091315E-05
   69.2933273         1.65635065E-05
   69.4201126         1.66519640E-05
   69.5469055         1.67777307E-05
   69.6736984         1.69427167E-05
   69.8004913         1.71474348E-05
   69.9272842         1.73911030E-05
   70.0540771         1.76714584E-05
   70.1808701         1.79849849E-05
   70.3076630         1.83269785E-05
   70.4344559         1.86917205E-05
   70.5612488         1.90726714E-05
   70.6880417         1.94627828E-05
   70.8148346         1.98546641E-05
   70.9416275         2.02409883E-05
   71.0684204         2.06146560E-05
   71.1952133         2.09691007E-05
   71.3220062         2.12985469E-05
   71.4487991         2.15982509E-05
   71.5755920         2.18645528E-05
   71.7023849         2.20950733E-05
   71.8291779         2.22887502E-05
   71.9559708         2.24457799E-05
   72.0827637         2.25675594E-05
   72.2095566         2.26565553E-05
   72.3363495         2.27160672E-05
   72.4631424         2.27500859E-05
   72.5899353         2.27628552E-05
   72.7167282         2.27587152E-05
   72.8435211         2.27417295E-05
   72.9703140         2.27153942E-05
   73.0971069         2.26823104E-05
   73.2238922         2.26440170E-05
   73.3506851         2.26007542E-05
   73.4774780         2.25512886E-05
   73.6042709         2.24929081E-05
   73.7310638         2.24213709E-05
   73.8578568         2.23310126E-05
   73.9846497         2.22149320E-05
   74.1114426         2.20652291E-05
   74.2382355         2.18732057E-05
   74.3650284         2.16299013E-05
   74.4918213         2.13263575E-05
   74.6186142         2.09540758E-05
   74.7454071         2.05055167E-05
   74.8722000         1.99743681E-05
   74.9989929         1.93561427E-05
   75.1257858         1.86484140E-05
   75.2525787         1.78510891E-05
   75.3793716         1.69667255E-05
   75.5061646         1.60005347E-05
   75.6329575         1.49603920E-05
   75.7597504         1.38570440E-05
   75.8865433         1.27036265E-05
   76.0133362         1.15154735E-05
   76.1401291         1.03098910E-05
   76.2669220         9.10559629E-06
   76.3937149         7.92234823E-06
   76.5205078         6.78018660E-06
   76.6473007         5.69905251E-06
   76.7740936         4.69814813E-06
   76.9008865         3.79532707E-06
   77.0276718         3.00653346E-06
   77.1544647         2.34542836E-06
   77.2812576         1.82273618E-06
   77.4080505         1.44610635E-06
   77.5348434         1.21977359E-06
   77.6616364         1.14438558E-06
   77.7884293         1.21698054E-06
   77.9152222         1.43120485E-06
   78.0420151         1.77726008E-06
   78.1688080         2.24244332E-06
   78.2956009         2.81149300E-06
   78.4223938         3.46702950E-06
   78.5491867         4.19015214E-06
   78.6759796         4.96118810E-06
   78.8027725         5.76023604E-06
   78.9295654         6.56788870E-06
   79.0563583         7.36591346E-06
   79.1831512         8.13795668E-06
   79.3099442         8.86997532E-06
   79.4367371         9.55089217E-06
   79.5635300         1.01730284E-05
   79.6903229         1.07321812E-05
   79.8171158         1.12280968E-05
   79.9439087         1.16642768E-05
   80.0707016         1.20479381E-05
   80.1974945         1.23898762E-05
   80.3242874         1.27039548E-05
   80.4510803         1.30066910E-05
   80.5778732         1.33166213E-05
   80.7046585         1.36536755E-05
   80.8314514         1.40383572E-05
   80.9582443         1.44910418E-05
   81.0850372         1.50310880E-05
   81.2118301         1.56761580E-05
   81.3386230         1.64414378E-05
   81.4654160         1.73389762E-05
   81.5922089         1.83771353E-05
   81.7190018         1.95601642E-05
   81.8457947         2.08878610E-05
   81.9725876         2.23554343E-05
   82.0993805         2.39534875E-05
   82.2261734         2.56681305E-05
   82.3529663         2.74813501E-05
   82.4797592         2.93713474E-05
   82.6065521         3.13131532E-05
   82.7333450         3.32792843E-05
   82.8601379         3.52404786E-05
   82.9869308         3.71664755E-05
   83.1137238         3.90269088E-05
   83.2405167         4.07920816E-05
   83.3673096         4.24338359E-05
   83.4941025         4.39262658E-05
   83.6208954         4.52464737E-05
   83.7476883         4.63751530E-05
   83.8744812         4.72970714E-05
   84.0012741         4.80014824E-05
   84.1280670         4.84823613E-05
   84.2548599         4.87385623E-05
   84.3816528         4.87737452E-05
   84.5084381         4.85962846E-05
   84.6352310         4.82189680E-05
   84.7620239         4.76586720E-05
   84.8888168         4.69358383E-05
   85.0156097         4.60739502E-05
   85.1424026         4.50988518E-05
   85.2691956         4.40381300E-05
   85.3959885         4.29203938E-05
   85.5227814         4.17745578E-05
   85.6495743         4.06291401E-05
   85.7763672         3.95115785E-05
   85.9031601         3.84476371E-05
   86.0299530         3.74607989E-05
   86.1567459         3.65718188E-05
   86.2835388         3.57982972E-05
   86.4103317         3.51544040E-05
   86.5371246         3.46506677E-05
   86.6639175         3.42938692E-05
   86.7907104         3.40870974E-05
   86.9175034         3.40298211E-05
   87.0442963         3.41181221E-05
   87.1710892         3.43449719E-05
   87.2978821         3.47006062E-05
   87.4246750         3.51729541E-05
   87.5514679         3.57480494E-05
   87.6782608         3.64105763E-05
   87.8050537         3.71442911E-05
   87.9318466         3.79325429E-05
   88.0586395         3.87587097E-05
   88.1854324         3.96065552E-05
   88.3122177         4.04606326E-05
   88.4390106         4.13065063E-05
   88.5658035         4.21309742E-05
   88.6925964         4.29221836E-05
   88.8193893         4.36696901E-05
   88.9461823         4.43643803E-05
   89.0729752         4.49984400E-05
   89.1997681         4.55651316E-05
   89.3265610         4.60586598E-05
   89.4533539         4.64738841E-05
   89.5801468         4.68061153E-05
   89.7069397         4.70508785E-05
   89.8337326         4.72036190E-05
   89.9605255         4.72596475E-05
   90.0873184         4.72138199E-05
   90.2141113         4.70605410E-05
   90.3409042         4.67937498E-05
   90.4676971         4.64068144E-05
   90.5944901         4.58927207E-05
   90.7212830         4.52441745E-05
   90.8480759         4.44537327E-05
   90.9748688         4.35141301E-05
   91.1016617         4.24184873E-05
   91.2284546         4.11605506E-05
   91.3552475         3.97350559E-05
   91.4820404         3.81379868E-05
   91.6088333         3.63668223E-05
   91.7356262         3.44207256E-05
   91.8624191         3.23008171E-05
   91.9892120         3.00102092E-05
   92.1159973         2.75541333E-05
   92.2427902         2.49398890E-05
   92.3695831         2.21768260E-05
   92.4963760         1.92761290E-05
   92.6231689         1.62507313E-05
   92.7499619         1.31149372E-05
   92.8767548         9.88421289E-06
   93.0035477         6.57485816E-06
   93.1303406         3.20364234E-06
   93.2571335        -2.12514024E-07
   93.3839264        -3.65686310E-06
   93.5107193        -7.11306257E-06
   93.6375122        -1.05654808E-05
   93.7643051        -1.39992680E-05
   93.8910980        -1.74005600E-05
   94.0178909        -2.07564735E-05
   94.1446838        -2.40549834E-05
   94.2714767        -2.72849829E-05
   94.3982697        -3.04359164E-05
   94.5250626        -3.34976830E-05
   94.6518555        -3.64603438E-05
   94.7786484        -3.93137962E-05
   94.9054413        -4.20475408E-05
   95.0322342        -4.46504564E-05
   95.1590271        -4.71105232E-05
   95.2858200        -4.94147025E-05
   95.4126129        -5.15488282E-05
   95.5394058        -5.34977225E-05
   95.6661987        -5.52451929E-05
   95.7929916        -5.67743118E-05
   95.9197769        -5.80677151E-05
   96.0465698        -5.91080279E-05
   96.1733627        -5.98784136E-05
   96.3001556        -6.03630288E-05
   96.4269485        -6.05477253E-05
   96.5537415        -6.04206871E-05
   96.6805344        -5.99729465E-05
   96.8073273        -5.91991848E-05
   96.9341202        -5.80980377E-05
   97.0609131        -5.66727649E-05
   97.1877060        -5.49314755E-05
   97.3144989        -5.28873534E-05
   97.4412918        -5.05588177E-05
   97.5680847        -4.79693408E-05
   97.6948776        -4.51473315E-05
   97.8216705        -4.21256700E-05
   97.9484634        -3.89412344E-05
   98.0752563        -3.56342316E-05