  -4.50000000         0.00000000    
  -4.37320757         0.00000000    
  -4.24641466         0.00000000    
  -4.11962223         0.00000000    
  -3.99282932         0.00000000    
  -3.86603665         0.00000000    
  -3.73924398         0.00000000    
  -3.61245155         7.16067101E-31
  -3.48565888         2.95901757E-30
  -3.35886621         3.33734439E-29
  -3.23207355         1.46847717E-28
  -3.10528088         6.37135374E-28
  -2.97848821         3.28137248E-27
  -2.85169554         1.65843553E-26
  -2.72490287         7.06270558E-26
  -2.59811020         2.46638841E-25
  -2.47131753         7.13481745E-25
  -2.34452486         1.72876619E-24
  -2.21773219         3.51331155E-24
  -2.09093952         5.88988283E-24
  -1.96414697         7.68068031E-24
  -1.83735430         6.16859448E-24
  -1.71056163        -2.59841730E-24
  -1.58376896        -2.15666825E-23
  -1.45697629        -4.78914079E-23
  -1.33018374        -6.69376814E-23
  -1.20339108        -4.97524539E-23
  -1.07659841         3.81556716E-23
 -0.949805737         2.09442419E-22
 -0.823013067         4.10080721E-22
 -0.696220458         4.76000740E-22
 -0.569427788         1.32153033E-22
 -0.442635119        -9.13597157E-22
 -0.315842479        -2.74916304E-21
 -0.189049825        -4.94378064E-21
  -6.22571707E-02    -6.28207123E-21
   6.45354837E-02    -4.79339977E-21
  0.191328138         1.65166340E-21
  0.318120778         1.40464380E-20
  0.444913447         3.04698958E-20
  0.571706116         4.45299241E-20
  0.698498726         4.51698485E-20
  0.825291395         1.90672288E-20
  0.952084064        -4.36945072E-20
   1.07887673        -1.41293150E-19
   1.20566940        -2.51596832E-19
   1.33246195        -3.27492721E-19
   1.45925462        -3.00977240E-19
   1.58604729        -9.97420522E-20
   1.71283996         3.23424001E-19
   1.83963263         9.53397931E-19
   1.96642530         1.67845317E-18
   2.09321785         2.27398361E-18
   2.22001052         2.41957898E-18
   2.34680319         1.75970185E-18
   2.47359586         7.62909810E-21
   2.60038853        -2.92171794E-18
   2.72718120        -6.77828438E-18
   2.85397387        -1.08801192E-17
   2.98076653        -1.40916686E-17
   3.10755920        -1.49070023E-17
   3.23435187        -1.16518390E-17
   3.36114454        -2.79927866E-18
   3.48793697         1.26231203E-17
   3.61472964         3.45699788E-17
   3.74152231         6.15040086E-17
   3.86831498         8.99714823E-17
   3.99510765         1.14314945E-16
   4.12190056         1.26653501E-16
   4.24869299         1.17311337E-16
   4.37548542         7.59063414E-17
   4.50227833        -6.71652377E-18
   4.62907076        -1.35650593E-16
   4.75586367        -3.08393393E-16
   4.88265610        -5.11184807E-16
   5.00944901        -7.16206115E-16
   5.13624144        -8.80953705E-16
   5.26303434        -9.51172895E-16
   5.38982677        -8.68393689E-16
   5.51661968        -5.82263471E-16
   5.64341211        -6.65783514E-17
   5.77020502         6.63601239E-16
   5.89699745         1.53774935E-15
   6.02379036         2.42334178E-15
   6.15058279         3.13147382E-15
   6.27737522         3.43755891E-15
   6.40416813         3.11728623E-15
   6.53096056         1.99443585E-15
   6.65775347        -6.41196745E-18
   6.78454590        -2.81207230E-15
   6.91133881        -6.16874487E-15
   7.03813124        -9.63570535E-15
   7.16492414        -1.26114329E-14
   7.29171658        -1.43940713E-14
   7.41850948        -1.42725018E-14
   7.54530191        -1.16390043E-14
   7.67209482        -6.11028096E-15
   7.79888725         2.35866531E-15
   7.92567968         1.33841395E-14
   8.05247211         2.61020521E-14
   8.17926502         3.91684704E-14
   8.30605793         5.08230949E-14
   8.43285084         5.90228346E-14
   8.55964279         6.16476474E-14
   8.68643570         5.67732032E-14
   8.81322861         4.29954466E-14
   8.94002151         1.97786801E-14
   9.06681347        -1.22138356E-14
   9.19360638        -5.08612859E-14
   9.32039928        -9.24601717E-14
   9.44719219        -1.31794071E-13
   9.57398415        -1.62449074E-13
   9.70077705        -1.77402675E-13
   9.82756996        -1.69883042E-13
   9.95436192        -1.34454270E-13
   10.0811548        -6.82434591E-14
   10.2079477         2.78130316E-14
   10.3347406         1.47858275E-13
   10.4615326         2.80309657E-13
   10.5883255         4.07536851E-13
   10.7151184         5.06188678E-13
   10.8419113         5.48306626E-13
   10.9687033         5.03315651E-13
   11.0954962         3.40922413E-13
   11.2222891         3.48623006E-14
   11.3490820        -4.32658087E-13
   11.4758739        -1.06609350E-12
   11.6026669        -1.85165034E-12
   11.7294598        -2.75282683E-12
   11.8562517        -3.70697830E-12
   11.9830446        -4.62352856E-12
   12.1098375        -5.38444289E-12
   12.2366304        -5.84750824E-12
   12.3634224        -5.85285379E-12
   12.4902153        -5.23292130E-12
   12.6170082        -3.82588015E-12
   12.7438011        -1.49216783E-12
   12.8705931         1.86651107E-12
   12.9973860         6.28669469E-12
   13.1241789         1.17225795E-11
   13.2509708         1.80270070E-11
   13.3777637         2.49360272E-11
   13.5045567         3.20591748E-11
   13.6313496         3.88776476E-11
   13.7581415         4.47525350E-11
   13.8849344         4.89447094E-11
   14.0117273         5.06475938E-11
   14.1385202         4.90329964E-11
   14.2653122         4.33093179E-11
   14.3921051         3.27902497E-11
   14.5188980         1.69706575E-11
   14.6456909        -4.39451817E-12
   14.7724829        -3.12138995E-11
   14.8992758        -6.29919381E-11
   15.0260687        -9.87765147E-11
   15.1528606        -1.37128475E-10
   15.2796535        -1.76119425E-10
   15.4064465        -2.13362883E-10
   15.5332394        -2.46082654E-10
   15.6600313        -2.71220324E-10
   15.7868242        -2.85580448E-10
   15.9136171        -2.86011520E-10
   16.0404091        -2.69614470E-10
   16.1672020        -2.33971037E-10
   16.2939949        -1.77379292E-10
   16.4207878        -9.90819093E-11
   16.5475807         5.27433999E-13
   16.6743736         1.19737220E-10
   16.8011646         2.55405586E-10
   16.9279575         4.02917560E-10
   17.0547504         5.56223012E-10
   17.1815434         7.07965520E-10
   17.3083363         8.49703197E-10
   17.4351292         9.72224079E-10
   17.5619221         1.06594611E-09
   17.6887150         1.12139098E-09
   17.8155060         1.12971343E-09
   17.9422989         1.08326248E-09
   18.0690918         9.76147052E-10
   18.1958847         8.04775524E-10
   18.3226776         5.68335767E-10
   18.4494705         2.69185174E-10
   18.5762634        -8.68815853E-11
   18.7030544        -4.90513019E-10
   18.8298473        -9.28850885E-10
   18.9566402        -1.38576250E-09
   19.0834332        -1.84226379E-09
   19.2102261        -2.27712449E-09
   19.3370190        -2.66764877E-09
   19.4638119        -2.99060354E-09
   19.5906048        -3.22325988E-09
   19.7173958        -3.34451777E-09
   19.8441887        -3.33605477E-09
   19.9709816        -3.18345839E-09
   20.0977745        -2.87727486E-09
   20.2245674        -2.41393172E-09
   20.3513603        -1.79647064E-09
   20.4781532        -1.03504616E-09
   20.6049442        -1.47151361E-10
   20.7317371         8.42467818E-10
   20.8585300         1.90222815E-09
   20.9853230         2.99446001E-09
   21.1121159         4.07649203E-09
   21.2389088         5.10204323E-09
   21.3657017         6.02289552E-09
   21.4924946         6.79078616E-09
   21.6192856         7.35946726E-09
   21.7460785         7.68685915E-09
   21.8728714         7.73720465E-09
   21.9996643         7.48314033E-09
   22.1264572         6.90759983E-09
   22.2532501         6.00543393E-09
   22.3800430         4.78468021E-09
   22.5068340         3.26737903E-09
   22.6336269         1.48988288E-09
   22.7604198        -4.97423880E-10
   22.8872128        -2.63099453E-09
   23.0140057        -4.83563589E-09
   23.1407986        -7.02663172E-09
   23.2675915        -9.11246989E-09
   23.3943844        -1.09980745E-08
   23.5211754        -1.25885062E-08
   23.6479683        -1.37929632E-08
   23.7747612        -1.45289958E-08
   23.9015541        -1.47267265E-08
   24.0283470        -1.43329579E-08
   24.1551399        -1.33149163E-08
   24.2819328        -1.16634835E-08
   24.4087238        -9.39575884E-09
   24.5355167        -6.55665255E-09
   24.6623096        -3.21952287E-09
   24.7891026         5.14382925E-10
   24.9158955         4.51773685E-09
   25.0426884         8.64021565E-09
   25.1694813         1.27128885E-08
   25.2962742         1.65537717E-08
   25.4230652         1.99745127E-08
   25.5498581         2.27879564E-08
   25.6766510         2.48163676E-08
   25.8034439         2.59000146E-08
   25.9302368         2.59057842E-08
   26.0570297         2.47354475E-08
   26.1838226         2.23331824E-08
   26.3106136         1.86919547E-08
   26.4374065         1.38583918E-08
   26.5641994         7.93575694E-09
   26.6909924         1.08477172E-09
   26.8177853        -6.47796439E-09
   26.9445782        -1.44841712E-08
   27.0713711        -2.26206076E-08
   27.1981640        -3.05383949E-08
   27.3249550        -3.78646945E-08
   27.4517479        -4.42164740E-08
   27.5785408        -4.92158705E-08
   27.7053337        -5.25068451E-08
   27.8321266        -5.37722542E-08
   27.9589195        -5.27508668E-08
   28.0857124        -4.92534369E-08
   28.2125034        -4.31772946E-08
   28.3392963        -3.45184326E-08
   28.4660892        -2.33806059E-08
   28.5928822        -9.98081529E-09
   28.7196751         5.34955813E-09
   28.8464680         2.21680274E-08
   28.9732609         3.99292510E-08
   29.1000538         5.79978590E-08
   29.2268448         7.56662502E-08
   29.3536377         9.21764922E-08
   29.4804306         1.06745993E-07
   29.6072235         1.18596297E-07
   29.7340164         1.26983906E-07
   29.8608093         1.31232085E-07
   29.9876022         1.30762672E-07
   30.1143932         1.25126306E-07
   30.2411861         1.14030321E-07
   30.3679790         9.73624381E-08
   30.4947720         7.52096838E-08
   30.6215649         4.78711186E-08
   30.7483578         1.58636286E-08
   30.8751507        -2.00797761E-08
   31.0019417        -5.90197047E-08
   31.1287346        -9.98281280E-08
   31.2555275        -1.41214201E-07
   31.3823204        -1.81757343E-07
   31.5091133        -2.19946983E-07
   31.6359062        -2.54228354E-07
   31.7626991        -2.83052202E-07
   31.8894920        -3.04927426E-07
   32.0162849        -3.18475315E-07
   32.1430779        -3.22482805E-07
   32.2698708        -3.15953486E-07
   32.3966637        -2.98154760E-07
   32.5234528        -2.68658283E-07
   32.6502457        -2.27374002E-07
   32.7770386        -1.74574069E-07
   32.9038315        -1.10907983E-07
   33.0306244        -3.74056768E-08
   33.1574173         4.45301644E-08
   33.2842102         1.33143658E-07
   33.4110031         2.26356789E-07
   33.5377960         3.21811683E-07
   33.6645889         4.16922461E-07
   33.7913818         5.08936807E-07
   33.9181747         5.95004735E-07
   34.0449677         6.72252440E-07
   34.1717606         7.37861001E-07
   34.2985535         7.89146441E-07
   34.4253426         8.23638459E-07
   34.5521355         8.39157849E-07
   34.6789284         8.33887896E-07
   34.8057213         8.06439743E-07
   34.9325142         7.55907536E-07
   35.0593071         6.81914344E-07
   35.1861000         5.84645079E-07
   35.3128929         4.64867071E-07
   35.4396858         3.23935126E-07
   35.5664787         1.63783682E-07
   35.6932716        -1.30965869E-08
   35.8200645        -2.03695976E-07
   35.9468575        -4.04536650E-07
   36.0736504        -6.11736198E-07
   36.2004433        -8.21081073E-07
   36.3272324        -1.02811100E-06
   36.4540253        -1.22820916E-06
   36.5808182        -1.41669807E-06
   36.7076111        -1.58893829E-06
   36.8344040        -1.74042714E-06
   36.9611969        -1.86689567E-06
   37.0879898        -1.96440169E-06
   37.2147827        -2.02941351E-06
   37.3415756        -2.05888978E-06
   37.4683685        -2.05034530E-06
   37.5951614        -2.00190743E-06
   37.7219543        -1.91235858E-06
   37.8487473        -1.78116693E-06
   37.9755402        -1.60850277E-06
   38.1023293        -1.39524434E-06
   38.2291222        -1.14297006E-06
   38.3559151        -8.53940492E-07
   38.4827080        -5.31071521E-07
   38.6095009        -1.77900318E-07
   38.7362938         2.01454895E-07
   38.8630867         6.02337593E-07
   38.9898796         1.01959677E-06
   39.1166725         1.44763158E-06
   39.2434654         1.88043134E-06
   39.3702583         2.31161198E-06
   39.4970512         2.73445016E-06
   39.6238441         3.14190834E-06
   39.7506371         3.52665529E-06
   39.8774300         3.88108265E-06
   40.0042191         4.19732169E-06
   40.1310120         4.46724243E-06
   40.2578049         4.68247299E-06
   40.3845978         4.83440499E-06
   40.5113907         4.91421270E-06
   40.6381836         4.91287392E-06
   40.7649765         4.82120413E-06
   40.8917694         4.62990147E-06
   41.0185623         4.32960860E-06
   41.1453552         3.91099047E-06
   41.2721481         3.36482685E-06
   41.3989410         2.68213307E-06
   41.5257339         1.85428496E-06
   41.6525269         8.73173860E-07
   41.7793198        -2.68631084E-07
   41.9061089        -1.57770558E-06
   42.0329018        -3.05958406E-06
   42.1596947        -4.71856856E-06
   42.2864876        -6.55753593E-06
   42.4132805        -8.57775740E-06
   42.5400734        -1.07787228E-05
   42.6668663        -1.31579736E-05
   42.7936592        -1.57109771E-05
   42.9204521        -1.84310156E-05
   43.0472450        -2.13090898E-05
   43.1740379        -2.43338891E-05
   43.3008308        -2.74917838E-05
   43.4276237        -3.07668379E-05
   43.5544167        -3.41408959E-05
   43.6812096        -3.75937016E-05
   43.8079987        -4.11030378E-05
   43.9347916        -4.46449412E-05
   44.0615845        -4.81938660E-05
   44.1883774        -5.17230619E-05
   44.3151703        -5.52047532E-05
   44.4419632        -5.86105270E-05
   44.5687561        -6.19116254E-05
   44.6955490        -6.50793154E-05
   44.8223419        -6.80852609E-05
   44.9491348        -7.09018277E-05
   45.0759277        -7.35025460E-05
   45.2027206        -7.58623282E-05
   45.3295135        -7.79578768E-05
   45.4563065        -7.97680477E-05
   45.5830994        -8.12739891E-05
   45.7098885        -8.24595554E-05
   45.8366814        -8.33114609E-05
   45.9634743        -8.38194683E-05
   46.0902672        -8.39765125E-05
   46.2170601        -8.37788612E-05
   46.3438530        -8.32261285E-05
   46.4706459        -8.23212686E-05
   46.5974388        -8.10706042E-05
   46.7242317        -7.94836888E-05
   46.8510246        -7.75731605E-05
   46.9778175        -7.53546774E-05
   47.1046104        -7.28465166E-05
   47.2314034        -7.00695236E-05
   47.3581963        -6.70467271E-05
   47.4849892        -6.38030397E-05
   47.6117783        -6.03650151E-05
   47.7385712        -5.67605020E-05
   47.8653641        -5.30181933E-05
   47.9921570        -4.91675200E-05
   48.1189499        -4.52381464E-05
   48.2457428        -4.12597838E-05
   48.3725357        -3.72618706E-05
   48.4993286        -3.32733289E-05
   48.6261215        -2.93223220E-05
   48.7529144        -2.54361803E-05
   48.8797073        -2.16410554E-05
   49.0065002        -1.79620183E-05
   49.1332932        -1.44228052E-05
   49.2600861        -1.10458341E-05
   49.3868790        -7.85210068E-06
   49.5136681        -4.86119416E-06
   49.6404610        -2.09121640E-06
   49.7672539         4.41240530E-07
   49.8940468         2.72106217E-06
   50.0208397         4.73472983E-06
   50.1476326         6.47034085E-06
   50.2744255         7.91769617E-06
   50.4012184         9.06839978E-06
   50.5280113         9.91602246E-06
   50.6548042         1.04562714E-05
   50.7815971         1.06870593E-05
   50.9083900         1.06088464E-05
   51.0351830         1.02246968E-05
   51.1619759         9.54051575E-06
   51.2887688         8.56519546E-06
   51.4155579         7.31075033E-06
   51.5423508         5.79244988E-06
   51.6691437         4.02883825E-06
   51.7959366         2.04177627E-06
   51.9227295        -1.43655299E-07
   52.0495224        -2.49931895E-06
   52.1763153        -4.99423686E-06
   52.3031082        -7.59491695E-06
   52.4299011        -1.02657259E-05
   52.5566940        -1.29694390E-05
   52.6834869        -1.56676633E-05
   52.8102798        -1.83215252E-05
   52.9370728        -2.08922556E-05
   53.0638657        -2.33418850E-05
   53.1906586        -2.56338553E-05
   53.3174477        -2.77337604E-05
   53.4442406        -2.96099570E-05
   53.5710335        -3.12341581E-05
   53.6978264        -3.25819528E-05
   53.8246193        -3.36332887E-05
   53.9514122        -3.43727370E-05
   54.0782051        -3.47898349E-05
   54.2049980        -3.48791582E-05
   54.3317909        -3.46402776E-05
   54.4585838        -3.40777879E-05
   54.5853767        -3.32010495E-05
   54.7121696        -3.20238614E-05
   54.8389626        -3.05641661E-05
   54.9657555        -2.88434749E-05
   55.0925484        -2.68865169E-05
   55.2193375        -2.47205062E-05
   55.3461304        -2.23746920E-05
   55.4729233        -1.98797461E-05
   55.5997162        -1.72672189E-05
   55.7265091        -1.45689992E-05
   55.8533020        -1.18168782E-05
   55.9800949        -9.04210810E-06
   56.1068878        -6.27507598E-06
   56.2336807        -3.54488634E-06
   56.3604736        -8.79303968E-07
   56.4872665         1.69563430E-06
   56.6140594         4.15572367E-06
   56.7408524         6.47861407E-06
   56.8676453         8.64397316E-06
   56.9944382         1.06335274E-05
   57.1212273         1.24310636E-05
   57.2480202         1.40225948E-05
   57.3748131         1.53963483E-05
   57.5016060         1.65429046E-05
   57.6283989         1.74553461E-05
   57.7551918         1.81293763E-05
   57.8819847         1.85635017E-05
   58.0087776         1.87592541E-05
   58.1355705         1.87212681E-05
   58.2623634         1.84575292E-05
   58.3891563         1.79794788E-05
   58.5159492         1.73021417E-05
   58.6427422         1.64441644E-05
   58.7695351         1.54277386E-05
   58.8963280         1.42785902E-05
   59.0231171         1.30257122E-05
   59.1499100         1.17010168E-05
   59.2767029         1.03389330E-05
   59.4034958         8.97581231E-06
   59.5302887         7.64930519E-06
   59.6570816         6.39757172E-06
   59.7838745         5.25847554E-06
   59.9106674         4.26873476E-06
   60.0374603         3.46297406E-06
   60.1642532         2.87279909E-06
   60.2910461         2.52590462E-06
   60.4178391         2.44519515E-06
   60.5446320         2.64804657E-06
   60.6714249         3.14567569E-06
   60.7982178         3.94255449E-06
   60.9250069         5.03612819E-06
   61.0517998         6.41666384E-06
   61.1785927         8.06731987E-06
   61.3053856         9.96433209E-06
   61.4321785         1.20775458E-05
   61.5589714         1.43709813E-05
   61.6857643         1.68037150E-05
   61.8125572         1.93308515E-05
   61.9393501         2.19046142E-05
   62.0661430         2.44756648E-05
   62.1929359         2.69943521E-05
   62.3197289         2.94121055E-05
   62.4465218         3.16827463E-05
   62.5733147         3.37636884E-05
   62.7001076         3.56173114E-05
   62.8268967         3.72118084E-05
   62.9536896         3.85222556E-05
   63.0804825         3.95311436E-05
   63.2072754         4.02290243E-05
   63.3340683         4.06146755E-05
   63.4608612         4.06951658E-05
   63.5876541         4.04855782E-05
   63.7144470         4.00085519E-05
   63.8412399         3.92935799E-05
   63.9680328         3.83760453E-05
   64.0948257         3.72961040E-05
   64.2216187         3.60974518E-05
   64.3484116         3.48259455E-05
   64.4752045         3.35281366E-05
   64.6019974         3.22497654E-05
   64.7287903         3.10343494E-05
   64.8555832         2.99217754E-05
   64.9823761         2.89469208E-05
   65.1091690         2.81385473E-05
   65.2359619         2.75182974E-05
   65.3627548         2.70999371E-05
   65.4895477         2.68888562E-05
   65.6163330         2.68818585E-05
   65.7431259         2.70670698E-05
   65.8699188         2.74244085E-05
   65.9967117         2.79259657E-05
   66.1235046         2.85369479E-05
   66.2502975         2.92167006E-05
   66.3770905         2.99199492E-05
   66.5038834         3.05982612E-05
   66.6306763         3.12015436E-05
   66.7574692         3.16797596E-05
   66.8842621         3.19845713E-05
   67.0110550         3.20709478E-05
   67.1378479         3.18987877E-05
   67.2646408         3.14343379E-05
   67.3914337         3.06514339E-05
   67.5182266         2.95326172E-05
   67.6450195         2.80698514E-05
   67.7718124         2.62652520E-05
   67.8986053         2.41311845E-05
   68.0253983         2.16902790E-05
   68.1521912         1.89751572E-05
   68.2789841         1.60277050E-05
   68.4057770         1.28982138E-05
   68.5325699         9.64422907E-06
   68.6593628         6.32915317E-06
   68.7861557         3.02072203E-06
   68.9129486        -2.10785672E-07
   69.0397415        -3.29406748E-06
   69.1665344        -6.15871113E-06
   69.2933273        -8.73700901E-06
   69.4201126        -1.09654902E-05
   69.5469055        -1.27866415E-05
   69.6736984        -1.41501987E-05
   69.8004913        -1.50143896E-05
   69.9272842        -1.53470282E-05
   70.0540771        -1.51259637E-05
   70.1808701        -1.43398192E-05
   70.3076630        -1.29880336E-05
   70.4344559        -1.10806332E-05
   70.5612488        -8.63805508E-06
   70.6880417        -5.69028180E-06
   70.8148346        -2.27616670E-06
   70.9416275         1.55770124E-06
   71.0684204         5.75836521E-06
   71.1952133         1.02677013E-05
   71.3220062         1.50240739E-05
   71.4487991         1.99636361E-05
   71.5755920         2.50221565E-05
   71.7023849         3.01362470E-05
   71.8291779         3.52449388E-05
   71.9559708         4.02909136E-05
   72.0827637         4.52216591E-05
   72.2095566         4.99905109E-05
   72.3363495         5.45575203E-05
   72.4631424         5.88898038E-05
   72.5899353         6.29621136E-05
   72.7167282         6.67569911E-05
   72.8435211         7.02645557E-05
   72.9703140         7.34824280E-05
   73.0971069         7.64152355E-05
   73.2238922         7.90739505E-05
   73.3506851         8.14752057E-05
   73.4774780         8.36404943E-05
   73.6042709         8.55951876E-05
   73.7310638         8.73676327E-05
   73.8578568         8.89881048E-05
   73.9846497         9.04878762E-05
   74.1114426         9.18983860E-05
   74.2382355         9.32503826E-05
   74.3650284         9.45731299E-05
   74.4918213         9.58938326E-05
   74.6186142         9.72372000E-05
   74.7454071         9.86248779E-05
   74.8722000         1.00075384E-04
   74.9989929         1.01603902E-04
   75.1257858         1.03222264E-04
   75.2525787         1.04939092E-04
   75.3793716         1.06759966E-04
   75.5061646         1.08687695E-04
   75.6329575         1.10722729E-04
   75.7597504         1.12863519E-04
   75.8865433         1.15106697E-04
   76.0133362         1.17447715E-04
   76.1401291         1.19881006E-04
   76.2669220         1.22400379E-04
   76.3937149         1.24999235E-04
   76.5205078         1.27670719E-04
   76.6473007         1.30407760E-04
   76.7740936         1.33203386E-04
   76.9008865         1.36050163E-04
   77.0276718         1.38940493E-04
   77.1544647         1.41865996E-04
   77.2812576         1.44817619E-04
   77.4080505         1.47784987E-04
   77.5348434         1.50756052E-04
   77.6616364         1.53716755E-04
   77.7884293         1.56650756E-04
   77.9152222         1.59538729E-04
   78.0420151         1.62358454E-04
   78.1688080         1.65084377E-04
   78.2956009         1.67687307E-04
   78.4223938         1.70134634E-04
   78.5491867         1.72390282E-04
   78.6759796         1.74414774E-04
   78.8027725         1.76165689E-04
   78.9295654         1.77598078E-04
   79.0563583         1.78664966E-04
   79.1831512         1.79318202E-04
   79.3099442         1.79509239E-04
   79.4367371         1.79189898E-04
   79.5635300         1.78313509E-04
   79.6903229         1.76835849E-04
   79.8171158         1.74715839E-04
   79.9439087         1.71917098E-04
   80.0707016         1.68408427E-04
   80.1974945         1.64164885E-04
   80.3242874         1.59168514E-04
   80.4510803         1.53408968E-04
   80.5778732         1.46884035E-04
   80.7046585         1.39599826E-04
   80.8314514         1.31571214E-04
   80.9582443         1.22821453E-04
   81.0850372         1.13382281E-04
   81.2118301         1.03293351E-04
   81.3386230         9.26018256E-05
   81.4654160         8.13616716E-05
   81.5922089         6.96328643E-05
   81.7190018         5.74805235E-05
   81.8457947         4.49739055E-05
   81.9725876         3.21853986E-05
   82.0993805         1.91893942E-05
   82.2261734         6.06132789E-06
   82.3529663        -7.12343899E-06
   82.4797592        -2.02906085E-05
   82.6065521        -3.33678217E-05
   82.7333450        -4.62855460E-05
   82.8601379        -5.89777555E-05
   82.9869308        -7.13827758E-05
   83.1137238        -8.34437087E-05
   83.2405167        -9.51089314E-05
   83.3673096        -1.06332474E-04
   83.4941025        -1.17074218E-04
   83.6208954        -1.27300111E-04
   83.7476883        -1.36982140E-04
   83.8744812        -1.46098319E-04
   84.0012741        -1.54632478E-04
   84.1280670        -1.62574201E-04
   84.2548599        -1.69918450E-04
   84.3816528        -1.76665315E-04
   84.5084381        -1.82819596E-04
   84.6352310        -1.88390550E-04
   84.7620239        -1.93391257E-04
   84.8888168        -1.97838308E-04
   85.0156097        -2.01751376E-04
   85.1424026        -2.05152537E-04
   85.2691956        -2.08066078E-04
   85.3959885        -2.10517770E-04
   85.5227814        -2.12534680E-04
   85.6495743        -2.14144689E-04
   85.7763672        -2.15376058E-04
   85.9031601        -2.16257264E-04
   86.0299530        -2.16816567E-04
   86.1567459        -2.17081746E-04
   86.2835388        -2.17080000E-04
   86.4103317        -2.16837623E-04
   86.5371246        -2.16380169E-04
   86.6639175        -2.15732216E-04
   86.7907104        -2.14917309E-04
   86.9175034        -2.13958207E-04
   87.0442963        -2.12876883E-04
   87.1710892        -2.11694467E-04
   87.2978821        -2.10431579E-04
   87.4246750        -2.09108315E-04
   87.5514679        -2.07744481E-04
   87.6782608        -2.06359589E-04
   87.8050537        -2.04973141E-04
   87.9318466        -2.03604548E-04
   88.0586395        -2.02273310E-04
   88.1854324        -2.00998984E-04
   88.3122177        -1.99801070E-04
   88.4390106        -1.98698966E-04
   88.5658035        -1.97711663E-04
   88.6925964        -1.96857480E-04
   88.8193893        -1.96153822E-04
   88.9461823        -1.95616594E-04
   89.0729752        -1.95259854E-04
   89.1997681        -1.95095272E-04
   89.3265610        -1.95131477E-04
   89.4533539        -1.95373621E-04
   89.5801468        -1.95822839E-04
   89.7069397        -1.96475594E-04
   89.8337326        -1.97323156E-04
   89.9605255        -1.98351525E-04
   90.0873184        -1.99540766E-04
   90.2141113        -2.00865252E-04
   90.3409042        -2.02293653E-04
   90.4676971        -2.03788950E-04
   90.5944901        -2.05309450E-04
   90.7212830        -2.06808807E-04
   90.8480759        -2.08237179E-04
   90.9748688        -2.09542151E-04
   91.1016617        -2.10670099E-04
   91.2284546        -2.11567167E-04
   91.3552475        -2.12180908E-04
   91.4820404        -2.12461891E-04
   91.6088333        -2.12365005E-04
   91.7356262        -2.11850827E-04
   91.8624191        -2.10887258E-04
   91.9892120        -2.09450242E-04
   92.1159973        -2.07525052E-04
   92.2427902        -2.05106946E-04
   92.3695831        -2.02201409E-04
   92.4963760        -1.98824389E-04
   92.6231689        -1.95002212E-04
   92.7499619        -1.90770879E-04
   92.8767548        -1.86175224E-04
   93.0035477        -1.81267926E-04
   93.1303406        -1.76107860E-04
   93.2571335        -1.70758503E-04
   93.3839264        -1.65286096E-04
   93.5107193        -1.59757721E-04
   93.6375122        -1.54239387E-04
   93.7643051        -1.48794061E-04
   93.8910980        -1.43479730E-04
   94.0178909        -1.38348012E-04
   94.1446838        -1.33442372E-04
   94.2714767        -1.28797197E-04
   94.3982697        -1.24436730E-04
   94.5250626        -1.20374585E-04
   94.6518555        -1.16613563E-04
   94.7786484        -1.13145885E-04
   94.9054413        -1.09953704E-04
   95.0322342        -1.07010084E-04
   95.1590271        -1.04280065E-04
   95.2858200        -1.01722377E-04
   95.4126129        -9.92907662E-05
   95.5394058        -9.69360408E-05
   95.6661987        -9.46078144E-05
   95.7929916        -9.22564068E-05
   95.9197769        -8.98347062E-05
   96.0465698        -8.72998498E-05
   96.1733627        -8.46148250E-05
   96.3001556        -8.17497857E-05
   96.4269485        -7.86830715E-05
   96.5537415        -7.54019347E-05
   96.6805344        -7.19029558E-05
   96.8073273        -6.81920428E-05
   96.9341202        -6.42841333E-05
   97.0609131        -6.02026048E-05
   97.1877060        -5.59783730E-05
   97.3144989        -5.16487526E-05
   97.4412918        -4.72561223E-05
   97.5680847        -4.28464009E-05
   97.6948776        -3.84674313E-05
   97.8216705        -3.41673622E-05
   97.9484634        -2.99929670E-05
   98.0752563        -2.59881090E-05