  -4.50000000         0.00000000    
  -4.37320757         0.00000000    
  -4.24641466         0.00000000    
  -4.11962223         0.00000000    
  -3.99282932         0.00000000    
  -3.86603665         0.00000000    
  -3.73924398         0.00000000    
  -3.61245155         0.00000000    
  -3.48565888         0.00000000    
  -3.35886621         0.00000000    
  -3.23207355         0.00000000    
  -3.10528088         0.00000000    
  -2.97848821         0.00000000    
  -2.85169554         0.00000000    
  -2.72490287         0.00000000    
  -2.59811020         0.00000000    
  -2.47131753         0.00000000    
  -2.34452486         0.00000000    
  -2.21773219         0.00000000    
  -2.09093952         0.00000000    
  -1.96414697         0.00000000    
  -1.83735430         0.00000000    
  -1.71056163         0.00000000    
  -1.58376896         0.00000000    
  -1.45697629         0.00000000    
  -1.33018374         0.00000000    
  -1.20339108         0.00000000    
  -1.07659841         0.00000000    
 -0.949805737         0.00000000    
 -0.823013067         0.00000000    
 -0.696220458         0.00000000    
 -0.569427788         0.00000000    
 -0.442635119         0.00000000    
 -0.315842479         0.00000000    
 -0.189049825         0.00000000    
  -6.22571707E-02     0.00000000    
   6.45354837E-02     0.00000000    
  0.191328138         0.00000000    
  0.318120778         0.00000000    
  0.444913447         0.00000000    
  0.571706116         0.00000000    
  0.698498726         0.00000000    
  0.825291395         0.00000000    
  0.952084064         0.00000000    
   1.07887673         0.00000000    
   1.20566940         0.00000000    
   1.33246195         0.00000000    
   1.45925462         0.00000000    
   1.58604729         0.00000000    
   1.71283996         0.00000000    
   1.83963263         0.00000000    
   1.96642530         0.00000000    
   2.09321785         0.00000000    
   2.22001052         0.00000000    
   2.34680319         0.00000000    
   2.47359586         0.00000000    
   2.60038853         0.00000000    
   2.72718120         0.00000000    
   2.85397387         0.00000000    
   2.98076653         0.00000000    
   3.10755920         0.00000000    
   3.23435187         0.00000000    
   3.36114454         0.00000000    
   3.48793697         0.00000000    
   3.61472964         0.00000000    
   3.74152231         0.00000000    
   3.86831498         0.00000000    
   3.99510765         0.00000000    
   4.12190056         0.00000000    
   4.24869299         0.00000000    
   4.37548542         0.00000000    
   4.50227833         0.00000000    
   4.62907076         0.00000000    
   4.75586367         0.00000000    
   4.88265610         0.00000000    
   5.00944901         0.00000000    
   5.13624144         0.00000000    
   5.26303434         0.00000000    
   5.38982677         0.00000000    
   5.51661968         0.00000000    
   5.64341211         0.00000000    
   5.77020502         0.00000000    
   5.89699745         0.00000000    
   6.02379036         0.00000000    
   6.15058279         0.00000000    
   6.27737522         0.00000000    
   6.40416813         0.00000000    
   6.53096056         0.00000000    
   6.65775347         0.00000000    
   6.78454590         0.00000000    
   6.91133881         0.00000000    
   7.03813124         0.00000000    
   7.16492414         0.00000000    
   7.29171658         0.00000000    
   7.41850948         0.00000000    
   7.54530191         0.00000000    
   7.67209482         0.00000000    
   7.79888725         0.00000000    
   7.92567968         0.00000000    
   8.05247211         0.00000000    
   8.17926502         0.00000000    
   8.30605793         0.00000000    
   8.43285084         0.00000000    
   8.55964279         0.00000000    
   8.68643570         0.00000000    
   8.81322861         0.00000000    
   8.94002151         0.00000000    
   9.06681347         0.00000000    
   9.19360638         0.00000000    
   9.32039928         0.00000000    
   9.44719219         0.00000000    
   9.57398415         0.00000000    
   9.70077705         0.00000000    
   9.82756996         0.00000000    
   9.95436192         0.00000000    
   10.0811548         0.00000000    
   10.2079477         0.00000000    
   10.3347406         0.00000000    
   10.4615326         0.00000000    
   10.5883255         0.00000000    
   10.7151184         0.00000000    
   10.8419113         0.00000000    
   10.9687033         0.00000000    
   11.0954962         0.00000000    
   11.2222891         0.00000000    
   11.3490820         0.00000000    
   11.4758739         0.00000000    
   11.6026669         0.00000000    
   11.7294598         0.00000000    
   11.8562517         0.00000000    
   11.9830446         0.00000000    
   12.1098375         0.00000000    
   12.2366304         0.00000000    
   12.3634224         0.00000000    
   12.4902153         0.00000000    
   12.6170082         0.00000000    
   12.7438011         0.00000000    
   12.8705931         0.00000000    
   12.9973860         0.00000000    
   13.1241789         0.00000000    
   13.2509708         0.00000000    
   13.3777637         0.00000000    
   13.5045567         0.00000000    
   13.6313496         0.00000000    
   13.7581415         0.00000000    
   13.8849344         0.00000000    
   14.0117273         0.00000000    
   14.1385202         0.00000000    
   14.2653122         0.00000000    
   14.3921051         0.00000000    
   14.5188980         0.00000000    
   14.6456909         0.00000000    
   14.7724829         0.00000000    
   14.8992758         0.00000000    
   15.0260687         0.00000000    
   15.1528606         0.00000000    
   15.2796535         0.00000000    
   15.4064465         0.00000000    
   15.5332394         0.00000000    
   15.6600313         0.00000000    
   15.7868242         0.00000000    
   15.9136171         0.00000000    
   16.0404091         0.00000000    
   16.1672020         0.00000000    
   16.2939949         0.00000000    
   16.4207878         0.00000000    
   16.5475807         0.00000000    
   16.6743736         0.00000000    
   16.8011646         0.00000000    
   16.9279575         0.00000000    
   17.0547504         0.00000000    
   17.1815434         0.00000000    
   17.3083363         0.00000000    
   17.4351292         0.00000000    
   17.5619221         0.00000000    
   17.6887150         0.00000000    
   17.8155060         0.00000000    
   17.9422989         0.00000000    
   18.0690918         0.00000000    
   18.1958847         0.00000000    
   18.3226776         0.00000000    
   18.4494705         0.00000000    
   18.5762634         0.00000000    
   18.7030544         0.00000000    
   18.8298473         0.00000000    
   18.9566402         0.00000000    
   19.0834332         0.00000000    
   19.2102261         0.00000000    
   19.3370190         0.00000000    
   19.4638119         0.00000000    
   19.5906048         0.00000000    
   19.7173958         0.00000000    
   19.8441887         0.00000000    
   19.9709816         0.00000000    
   20.0977745         0.00000000    
   20.2245674         0.00000000    
   20.3513603         0.00000000    
   20.4781532         0.00000000    
   20.6049442         0.00000000    
   20.7317371         0.00000000    
   20.8585300         0.00000000    
   20.9853230         0.00000000    
   21.1121159         0.00000000    
   21.2389088         0.00000000    
   21.3657017         0.00000000    
   21.4924946         0.00000000    
   21.6192856         0.00000000    
   21.7460785         0.00000000    
   21.8728714         0.00000000    
   21.9996643         0.00000000    
   22.1264572         0.00000000    
   22.2532501         0.00000000    
   22.3800430         0.00000000    
   22.5068340         0.00000000    
   22.6336269         0.00000000    
   22.7604198         0.00000000    
   22.8872128         0.00000000    
   23.0140057         0.00000000    
   23.1407986         0.00000000    
   23.2675915         0.00000000    
   23.3943844         0.00000000    
   23.5211754         0.00000000    
   23.6479683         0.00000000    
   23.7747612         0.00000000    
   23.9015541         0.00000000    
   24.0283470         0.00000000    
   24.1551399         0.00000000    
   24.2819328         0.00000000    
   24.4087238         0.00000000    
   24.5355167         0.00000000    
   24.6623096         0.00000000    
   24.7891026         0.00000000    
   24.9158955         0.00000000    
   25.0426884         0.00000000    
   25.1694813         0.00000000    
   25.2962742         0.00000000    
   25.4230652         0.00000000    
   25.5498581         0.00000000    
   25.6766510         0.00000000    
   25.8034439         0.00000000    
   25.9302368         0.00000000    
   26.0570297         0.00000000    
   26.1838226         0.00000000    
   26.3106136         0.00000000    
   26.4374065         0.00000000    
   26.5641994         0.00000000    
   26.6909924         0.00000000    
   26.8177853         0.00000000    
   26.9445782         0.00000000    
   27.0713711         0.00000000    
   27.1981640         0.00000000    
   27.3249550         0.00000000    
   27.4517479         0.00000000    
   27.5785408         0.00000000    
   27.7053337         0.00000000    
   27.8321266         0.00000000    
   27.9589195         0.00000000    
   28.0857124         0.00000000    
   28.2125034         0.00000000    
   28.3392963         0.00000000    
   28.4660892         0.00000000    
   28.5928822         0.00000000    
   28.7196751         0.00000000    
   28.8464680         0.00000000    
   28.9732609         0.00000000    
   29.1000538         0.00000000    
   29.2268448         0.00000000    
   29.3536377         0.00000000    
   29.4804306         0.00000000    
   29.6072235         0.00000000    
   29.7340164         0.00000000    
   29.8608093         0.00000000    
   29.9876022         0.00000000    
   30.1143932         0.00000000    
   30.2411861         0.00000000    
   30.3679790         0.00000000    
   30.4947720         0.00000000    
   30.6215649         0.00000000    
   30.7483578         0.00000000    
   30.8751507         0.00000000    
   31.0019417         0.00000000    
   31.1287346         0.00000000    
   31.2555275         0.00000000    
   31.3823204         0.00000000    
   31.5091133         0.00000000    
   31.6359062         0.00000000    
   31.7626991         0.00000000    
   31.8894920         0.00000000    
   32.0162849         0.00000000    
   32.1430779         0.00000000    
   32.2698708         0.00000000    
   32.3966637         0.00000000    
   32.5234528         0.00000000    
   32.6502457         0.00000000    
   32.7770386         0.00000000    
   32.9038315         0.00000000    
   33.0306244         0.00000000    
   33.1574173         0.00000000    
   33.2842102         0.00000000    
   33.4110031         0.00000000    
   33.5377960         0.00000000    
   33.6645889         0.00000000    
   33.7913818         0.00000000    
   33.9181747         0.00000000    
   34.0449677         0.00000000    
   34.1717606         0.00000000    
   34.2985535         0.00000000    
   34.4253426         0.00000000    
   34.5521355         0.00000000    
   34.6789284         0.00000000    
   34.8057213         0.00000000    
   34.9325142         0.00000000    
   35.0593071         0.00000000    
   35.1861000         0.00000000    
   35.3128929         0.00000000    
   35.4396858         0.00000000    
   35.5664787         0.00000000    
   35.6932716         0.00000000    
   35.8200645         0.00000000    
   35.9468575         0.00000000    
   36.0736504         0.00000000    
   36.2004433         0.00000000    
   36.3272324         0.00000000    
   36.4540253         0.00000000    
   36.5808182         0.00000000    
   36.7076111         0.00000000    
   36.8344040         0.00000000    
   36.9611969         0.00000000    
   37.0879898         0.00000000    
   37.2147827         0.00000000    
   37.3415756         0.00000000    
   37.4683685         0.00000000    
   37.5951614         0.00000000    
   37.7219543         0.00000000    
   37.8487473         0.00000000    
   37.9755402         0.00000000    
   38.1023293         0.00000000    
   38.2291222         0.00000000    
   38.3559151         0.00000000    
   38.4827080         0.00000000    
   38.6095009         0.00000000    
   38.7362938         0.00000000    
   38.8630867         0.00000000    
   38.9898796         0.00000000    
   39.1166725         0.00000000    
   39.2434654         0.00000000    
   39.3702583         0.00000000    
   39.4970512         0.00000000    
   39.6238441         0.00000000    
   39.7506371         0.00000000    
   39.8774300         0.00000000    
   40.0042191         0.00000000    
   40.1310120         0.00000000    
   40.2578049         0.00000000    
   40.3845978         0.00000000    
   40.5113907         0.00000000    
   40.6381836         0.00000000    
   40.7649765         0.00000000    
   40.8917694         0.00000000    
   41.0185623         0.00000000    
   41.1453552         0.00000000    
   41.2721481         0.00000000    
   41.3989410         0.00000000    
   41.5257339         0.00000000    
   41.6525269         0.00000000    
   41.7793198         0.00000000    
   41.9061089         0.00000000    
   42.0329018         0.00000000    
   42.1596947         0.00000000    
   42.2864876         0.00000000    
   42.4132805         0.00000000    
   42.5400734         0.00000000    
   42.6668663         0.00000000    
   42.7936592         0.00000000    
   42.9204521         0.00000000    
   43.0472450         0.00000000    
   43.1740379         0.00000000    
   43.3008308         0.00000000    
   43.4276237         0.00000000    
   43.5544167         0.00000000    
   43.6812096         0.00000000    
   43.8079987         0.00000000    
   43.9347916         0.00000000    
   44.0615845         0.00000000    
   44.1883774         0.00000000    
   44.3151703         0.00000000    
   44.4419632         0.00000000    
   44.5687561         0.00000000    
   44.6955490         0.00000000    
   44.8223419         0.00000000    
   44.9491348         0.00000000    
   45.0759277         0.00000000    
   45.2027206         0.00000000    
   45.3295135         0.00000000    
   45.4563065         0.00000000    
   45.5830994         0.00000000    
   45.7098885         0.00000000    
   45.8366814         0.00000000    
   45.9634743         0.00000000    
   46.0902672         0.00000000    
   46.2170601         0.00000000    
   46.3438530         0.00000000    
   46.4706459         0.00000000    
   46.5974388         0.00000000    
   46.7242317         0.00000000    
   46.8510246         0.00000000    
   46.9778175         0.00000000    
   47.1046104         0.00000000    
   47.2314034         0.00000000    
   47.3581963         0.00000000    
   47.4849892         0.00000000    
   47.6117783         0.00000000    
   47.7385712         0.00000000    
   47.8653641         0.00000000    
   47.9921570         0.00000000    
   48.1189499         0.00000000    
   48.2457428         0.00000000    
   48.3725357         0.00000000    
   48.4993286         0.00000000    
   48.6261215         0.00000000    
   48.7529144         0.00000000    
   48.8797073         0.00000000    
   49.0065002         0.00000000    
   49.1332932         0.00000000    
   49.2600861         0.00000000    
   49.3868790         0.00000000    
   49.5136681         0.00000000    
   49.6404610         0.00000000    
   49.7672539         0.00000000    
   49.8940468         0.00000000    
   50.0208397         0.00000000    
   50.1476326         0.00000000    
   50.2744255         0.00000000    
   50.4012184         0.00000000    
   50.5280113         0.00000000    
   50.6548042         0.00000000    
   50.7815971         0.00000000    
   50.9083900         0.00000000    
   51.0351830         0.00000000    
   51.1619759         0.00000000    
   51.2887688         0.00000000    
   51.4155579         0.00000000    
   51.5423508         0.00000000    
   51.6691437        -4.64480016E-34
   51.7959366        -1.38714606E-33
   51.9227295        -2.30991032E-33
   52.0495224        -4.75443200E-34
   52.1763153         4.48383430E-33
   52.3031082        -4.38429087E-33
   52.4299011        -2.98971677E-32
   52.5566940        -7.71714275E-32
   52.6834869        -1.45449841E-31
   52.8102798        -1.92235068E-31
   52.9370728        -2.29391775E-31
   53.0638657        -1.86876742E-31
   53.1906586        -2.76643309E-32
   53.3174477         2.44933902E-31
   53.4442406         6.42230257E-31
   53.5710335         9.64950711E-31
   53.6978264         1.15367830E-30
   53.8246193         1.15207615E-30
   53.9514122         9.60114728E-31
   54.0782051         7.05167870E-31
   54.2049980         4.56082169E-31
   54.3317909        -1.52844006E-31
   54.4585838        -7.80813377E-31
   54.5853767        -1.42662095E-30
   54.7121696        -2.25635764E-30
   54.8389626        -3.41373189E-30
   54.9657555        -5.01497375E-30
   55.0925484        -6.53181097E-30
   55.2193375        -7.81625653E-30
   55.3461304        -8.94428799E-30
   55.4729233        -9.22804668E-30
   55.5997162        -8.51081533E-30
   55.7265091        -6.18842781E-30
   55.8533020        -1.89076743E-30
   55.9800949         3.99068408E-30
   56.1068878         9.83255547E-30
   56.2336807         1.49824274E-29
   56.3604736         1.77471646E-29
   56.4872665         1.90219060E-29
   56.6140594         1.88524813E-29
   56.7408524         1.67131208E-29
   56.8676453         1.25001829E-29
   56.9944382         7.54323565E-30
   57.1212273         2.75711260E-30
   57.2480202        -5.35891512E-30
   57.3748131        -1.79706778E-29
   57.5016060        -3.85844988E-29
   57.6283989        -6.79390867E-29
   57.7551918        -9.74656631E-29
   57.8819847        -1.30283672E-28
   58.0087776        -1.66026404E-28
   58.1355705        -1.97233354E-28
   58.2623634        -2.19033557E-28
   58.3891563        -2.34985288E-28
   58.5159492        -2.39271421E-28
   58.6427422        -2.48186407E-28
   58.7695351        -2.41336476E-28
   58.8963280        -2.02378380E-28
   59.0231171        -1.41924197E-28
   59.1499100        -6.60364845E-29
   59.2767029        -1.08180849E-30
   59.4034958         1.01490020E-28
   59.5302887         2.41450130E-28
   59.6570816         4.25269935E-28
   59.7838745         6.51756023E-28
   59.9106674         8.47076182E-28
   60.0374603         9.71549709E-28
   60.1642532         1.05690143E-27
   60.2910461         1.10860755E-27
   60.4178391         1.11282254E-27
   60.5446320         1.06218744E-27
   60.6714249         9.40519992E-28
   60.7982178         7.42756742E-28
   60.9250069         4.52224673E-28
   61.0517998         1.36211046E-28
   61.1785927        -1.88343310E-28
   61.3053856        -4.99820758E-28
   61.4321785        -8.04739957E-28
   61.5589714        -1.16180790E-27
   61.6857643        -1.59976475E-27
   61.8125572        -2.10416301E-27
   61.9393501        -2.65107146E-27
   62.0661430        -3.17255127E-27
   62.1929359        -3.60385250E-27
   62.3197289        -3.89177787E-27
   62.4465218        -3.94347407E-27
   62.5733147        -3.63368323E-27
   62.7001076        -2.85356855E-27
   62.8268967        -1.80514891E-27
   62.9536896        -4.87387387E-28
   63.0804825         1.01023923E-27
   63.2072754         2.76688032E-27
   63.3340683         4.64477680E-27
   63.4608612         6.52420170E-27
   63.5876541         8.25228163E-27
   63.7144470         9.69845241E-27
   63.8412399         1.07398736E-26
   63.9680328         1.12415791E-26
   64.0948257         1.15010943E-26
   64.2216187         1.12877406E-26
   64.3484116         1.05002640E-26
   64.4752045         9.07776602E-27
   64.6019974         6.64337054E-27
   64.7287903         3.40803280E-27
   64.8555832        -7.95897387E-28
   64.9823761        -5.97966273E-27
   65.1091690        -1.17791917E-26
   65.2359619        -1.78958920E-26
   65.3627548        -2.40225479E-26
   65.4895477        -3.00077820E-26
   65.6163330        -3.56604665E-26
   65.7431259        -4.05647654E-26
   65.8699188        -4.42484439E-26
   65.9967117        -4.63153765E-26
   66.1235046        -4.62702543E-26
   66.2502975        -4.37676670E-26
   66.3770905        -3.84572341E-26
   66.5038834        -3.00817500E-26
   66.6306763        -1.85421848E-26
   66.7574692        -4.03995969E-27
   66.8842621         1.33359940E-26
   67.0110550         3.32103816E-26
   67.1378479         5.49882458E-26
   67.2646408         7.78323696E-26
   67.3914337         1.00752045E-25
   67.5182266         1.22538411E-25
   67.6450195         1.41821919E-25
   67.7718124         1.57128088E-25
   67.8986053         1.66930104E-25
   68.0253983         1.69733494E-25
   68.1521912         1.64214599E-25
   68.2789841         1.49115641E-25
   68.4057770         1.23482431E-25
   68.5325699         8.69032962E-26
   68.6593628         3.93788178E-26
   68.7861557        -1.85244046E-26
   68.9129486        -8.56117091E-26
   69.0397415        -1.59995684E-25
   69.1665344        -2.39095975E-25
   69.2933273        -3.19499785E-25
   69.4201126        -3.97508958E-25
   69.5469055        -4.68687754E-25
   69.6736984        -5.28195082E-25
   69.8004913        -5.70967071E-25
   69.9272842        -5.91952546E-25
   70.0540771        -5.86379342E-25
   70.1808701        -5.50048895E-25
   70.3076630        -4.79647103E-25
   70.4344559        -3.73120337E-25
   70.5612488        -2.29773488E-25
   70.6880417        -5.07690202E-26
   70.8148346         1.60723162E-25
   70.9416275         3.99365345E-25
   71.0684204         6.57574581E-25
   71.1952133         9.25547229E-25
   71.3220062         1.19139819E-24
   71.4487991         1.44142844E-24
   71.5755920         1.66052479E-24
   71.7023849         1.83269290E-24
   71.8291779         1.94172235E-24
   71.9559708         1.97196451E-24
   72.0827637         1.90920885E-24
   72.2095566         1.74161871E-24
   72.3363495         1.46070554E-24
   72.4631424         1.06227921E-24
   72.5899353         5.47336299E-25
   72.7167282        -7.71706385E-26
   72.8435211        -7.97744810E-25
   72.9703140        -1.59399315E-24
   73.0971069        -2.43855720E-24
   73.2238922        -3.29739283E-24
   73.3506851        -4.13041101E-24
   73.4774780        -4.89253111E-24
   73.6042709        -5.53514036E-24
   73.7310638        -6.00794296E-24
   73.8578568        -6.26119098E-24
   73.9846497        -6.24822763E-24
   74.1114426        -5.92826525E-24
   74.2382355        -5.26929502E-24
   74.3650284        -4.25101759E-24
   74.4918213        -2.86765296E-24
   74.6186142        -1.13042555E-24
   74.7454071         9.30357604E-25
   74.8722000         3.26388162E-24
   74.9989929         5.79819786E-24
   75.1257858         8.44052060E-24
   75.2525787         1.10786048E-23
   75.3793716         1.35832918E-23
   75.5061646         1.58122735E-23
   75.6329575         1.76150684E-23
   75.7597504         1.88391407E-23
   75.8865433         1.93370902E-23
   76.0133362         1.89746260E-23
   76.1401291         1.76391255E-23
   76.2669220         1.52484320E-23
   76.3937149         1.17594596E-23
   76.5205078         7.17619981E-24
   76.6473007         1.55662777E-24
   76.7740936        -4.98203448E-24
   76.9008865        -1.22601425E-23
   77.0276718        -2.00350396E-23
   77.1544647        -2.80034798E-23
   77.2812576        -3.58074157E-23
   77.4080505        -4.30433118E-23
   77.5348434        -4.92750952E-23
   77.6616364        -5.40506793E-23
   77.7884293        -5.69216975E-23
   77.9152222        -5.74660431E-23
   78.0420151        -5.53125348E-23
   78.1688080        -5.01665617E-23
   78.2956009        -4.18360359E-23
   78.4223938        -3.02560185E-23
   78.5491867        -1.55107551E-23
   78.6759796         2.14836998E-24
   78.8027725         2.22904040E-23
   78.9295654         4.42994560E-23
   79.0563583         6.73776133E-23
   79.1831512         9.05574265E-23
   79.3099442         1.12724487E-22
   79.4367371         1.32650558E-22
   79.5635300         1.49037433E-22
   79.6903229         1.60570668E-22
   79.8171158         1.65981838E-22
   79.9439087         1.64117955E-22
   80.0707016         1.54015196E-22
   80.1974945         1.34974214E-22
   80.3242874         1.06633080E-22
   80.4510803         6.90345683E-23
   80.5778732         2.26828512E-23
   80.7046585        -3.14145901E-23
   80.8314514        -9.17235648E-23
   80.9582443        -1.56182797E-22
   81.0850372        -2.22230018E-22
   81.2118301        -2.86856306E-22
   81.3386230        -3.46691064E-22
   81.4654160        -3.98116718E-22
   81.5922089        -4.37413199E-22
   81.7190018        -4.60927312E-22
   81.8457947        -4.65264457E-22
   81.9725876        -4.47493301E-22
   82.0993805        -4.05358360E-22
   82.2261734        -3.37487721E-22
   82.3529663        -2.43587903E-22
   82.4797592        -1.24610589E-22
   82.6065521         1.71175433E-23
   82.7333450         1.77816594E-22
   82.8601379         3.52236113E-22
   82.9869308         5.33709816E-22
   83.1137238         7.14288079E-22
   83.2405167         8.84954513E-22
   83.3673096         1.03592558E-21
   83.4941025         1.15703140E-21
   83.6208954         1.23816881E-21
   83.7476883         1.26981463E-21
   83.8744812         1.24358154E-21
   84.0012741         1.15279301E-21
   84.1280670         9.93053549E-22
   84.2548599         7.62783612E-22
   84.3816528         4.63683150E-22
   84.5084381         1.01099101E-22
   84.6352310        -3.15742171E-22
   84.7620239        -7.73666359E-22
   84.8888168        -1.25567118E-21
   85.0156097        -1.74125336E-21
   85.1424026        -2.20695927E-21
   85.2691956        -2.62715652E-21
   85.3959885        -2.97501626E-21
   85.5227814        -3.22369834E-21
   85.6495743        -3.34768355E-21
   85.7763672        -3.32422623E-21
   85.9031601        -3.13485842E-21
   86.0299530        -2.76688421E-21
   86.1567459        -2.21477306E-21
   86.2835388        -1.48139091E-21
   86.4103317        -5.78960644E-22
   86.5371246         4.70319478E-22
   86.6639175         1.63406299E-21
   86.7907104         2.86999018E-21
   86.9175034         4.12673945E-21
   87.0442963         5.34524798E-21
   87.1710892         6.46069215E-21
   87.2978821         7.40498062E-21
   87.4246750         8.10971831E-21
   87.5514679         8.50957370E-21
   87.6782608         8.54593006E-21
   87.8050537         8.17064371E-21
   87.9318466         7.34978570E-21
   88.0586395         6.06712947E-21
   88.1854324         4.32717687E-21
   88.3122177         2.15756674E-21
   88.4390106        -3.89412515E-22
   88.5658035        -3.23633324E-21
   88.6925964        -6.28134946E-21
   88.8193893        -9.40020569E-21
   88.9461823        -1.24496603E-20
   89.0729752        -1.52722340E-20
   89.1997681        -1.77022758E-20
   89.3265610        -1.95731822E-20
   89.4533539        -2.07255482E-20
   89.5801468        -2.10159371E-20
   89.7069397        -2.03259182E-20
   89.8337326        -1.85709495E-20
   89.9605255        -1.57086300E-20
   90.0873184        -1.17458637E-20
   90.2141113        -6.74437754E-21
   90.3409042        -8.24166634E-22
   90.4676971         5.83553789E-21
   90.5944901         1.29981570E-20
   90.7212830         2.03747251E-20
   90.8480759         2.76320815E-20
   90.9748688         3.44041607E-20
   91.1016617         4.03062979E-20
   91.2284546         4.49520609E-20
   91.3552475         4.79721490E-20
   91.4820404         4.90346172E-20
   91.6088333         4.78654976E-20
   91.7356262         4.42689260E-20
   91.8624191         3.81456957E-20
   91.9892120         2.95090060E-20
   92.1159973         1.84964370E-20
   92.2427902         5.37713200E-21
   92.3695831        -9.44700521E-21
   92.4963760        -2.54461872E-20
   92.6231689        -4.19749571E-20
   92.7499619        -5.82912433E-20
   92.8767548        -7.35824265E-20
   93.0035477        -8.69977580E-20
   93.1303406        -9.76862176E-20
   93.2571335        -1.04838512E-19
   93.3839264        -1.07731576E-19
   93.5107193        -1.05773491E-19
   93.6375122        -9.85468214E-20
   93.7643051        -8.58478477E-20
   93.8910980        -6.77192346E-20
   94.0178909        -4.44740506E-20
   94.1446838        -1.67088755E-20
   94.2714767         1.46962530E-20
   94.3982697         4.85914294E-20
   94.5250626         8.35858513E-20
   94.6518555         1.18091729E-19
   94.7786484         1.50382405E-19
   94.9054413         1.78663762E-19
   95.0322342         2.01156224E-19
   95.1590271         2.16184713E-19
   95.2858200         2.22272013E-19
   95.4126129         2.18232760E-19
   95.5394058         2.03261761E-19
   95.6661987         1.77012399E-19
   95.7929916         1.39660335E-19
   95.9197769         9.19469606E-20
   96.0465698         3.51996758E-20
   96.1733627        -2.86761902E-20
   96.3001556        -9.72343766E-20
   96.4269485        -1.67556225E-19
   96.5537415        -2.36348895E-19
   96.6805344        -3.00073959E-19
   96.8073273        -3.55099279E-19
   96.9341202        -3.97871419E-19
   97.0609131        -4.25102256E-19
   97.1877060        -4.33958698E-19
   97.3144989        -4.22250370E-19
   97.4412918        -3.88602188E-19
   97.5680847        -3.32602836E-19
   97.6948776        -2.54920780E-19
   97.8216705        -1.57375028E-19
   97.9484634        -4.29560967E-20
   98.0752563         8.42099397E-20