  -4.50000000         0.00000000    
  -4.37320757         0.00000000    
  -4.24641466         0.00000000    
  -4.11962223         0.00000000    
  -3.99282932         0.00000000    
  -3.86603665         0.00000000    
  -3.73924398         0.00000000    
  -3.61245155         0.00000000    
  -3.48565888         0.00000000    
  -3.35886621         0.00000000    
  -3.23207355         0.00000000    
  -3.10528088         0.00000000    
  -2.97848821         0.00000000    
  -2.85169554         0.00000000    
  -2.72490287         0.00000000    
  -2.59811020         0.00000000    
  -2.47131753         0.00000000    
  -2.34452486         0.00000000    
  -2.21773219         0.00000000    
  -2.09093952         0.00000000    
  -1.96414697         0.00000000    
  -1.83735430         0.00000000    
  -1.71056163         0.00000000    
  -1.58376896         0.00000000    
  -1.45697629         0.00000000    
  -1.33018374         0.00000000    
  -1.20339108         0.00000000    
  -1.07659841         0.00000000    
 -0.949805737         0.00000000    
 -0.823013067         0.00000000    
 -0.696220458         0.00000000    
 -0.569427788         0.00000000    
 -0.442635119         0.00000000    
 -0.315842479         0.00000000    
 -0.189049825         0.00000000    
  -6.22571707E-02     0.00000000    
   6.45354837E-02     0.00000000    
  0.191328138         0.00000000    
  0.318120778         0.00000000    
  0.444913447         0.00000000    
  0.571706116         0.00000000    
  0.698498726         0.00000000    
  0.825291395         0.00000000    
  0.952084064         0.00000000    
   1.07887673         0.00000000    
   1.20566940         0.00000000    
   1.33246195         0.00000000    
   1.45925462         0.00000000    
   1.58604729         0.00000000    
   1.71283996         0.00000000    
   1.83963263         0.00000000    
   1.96642530         0.00000000    
   2.09321785         0.00000000    
   2.22001052         0.00000000    
   2.34680319         0.00000000    
   2.47359586         0.00000000    
   2.60038853         0.00000000    
   2.72718120         0.00000000    
   2.85397387         0.00000000    
   2.98076653         0.00000000    
   3.10755920         0.00000000    
   3.23435187         0.00000000    
   3.36114454         0.00000000    
   3.48793697         0.00000000    
   3.61472964         0.00000000    
   3.74152231         0.00000000    
   3.86831498         0.00000000    
   3.99510765         0.00000000    
   4.12190056         0.00000000    
   4.24869299         0.00000000    
   4.37548542         0.00000000    
   4.50227833         0.00000000    
   4.62907076         0.00000000    
   4.75586367         0.00000000    
   4.88265610         0.00000000    
   5.00944901         0.00000000    
   5.13624144         0.00000000    
   5.26303434         0.00000000    
   5.38982677         0.00000000    
   5.51661968         0.00000000    
   5.64341211         0.00000000    
   5.77020502         0.00000000    
   5.89699745         0.00000000    
   6.02379036         0.00000000    
   6.15058279         0.00000000    
   6.27737522         0.00000000    
   6.40416813         0.00000000    
   6.53096056         0.00000000    
   6.65775347         0.00000000    
   6.78454590         0.00000000    
   6.91133881         0.00000000    
   7.03813124         0.00000000    
   7.16492414         0.00000000    
   7.29171658         0.00000000    
   7.41850948         0.00000000    
   7.54530191         0.00000000    
   7.67209482         0.00000000    
   7.79888725         0.00000000    
   7.92567968         0.00000000    
   8.05247211         0.00000000    
   8.17926502         0.00000000    
   8.30605793         0.00000000    
   8.43285084         0.00000000    
   8.55964279         0.00000000    
   8.68643570         0.00000000    
   8.81322861         0.00000000    
   8.94002151         0.00000000    
   9.06681347         0.00000000    
   9.19360638         0.00000000    
   9.32039928         0.00000000    
   9.44719219         0.00000000    
   9.57398415         0.00000000    
   9.70077705         0.00000000    
   9.82756996         0.00000000    
   9.95436192         0.00000000    
   10.0811548         0.00000000    
   10.2079477         0.00000000    
   10.3347406         0.00000000    
   10.4615326         0.00000000    
   10.5883255         0.00000000    
   10.7151184         0.00000000    
   10.8419113         0.00000000    
   10.9687033         0.00000000    
   11.0954962         0.00000000    
   11.2222891         0.00000000    
   11.3490820         0.00000000    
   11.4758739         0.00000000    
   11.6026669         0.00000000    
   11.7294598         0.00000000    
   11.8562517         0.00000000    
   11.9830446         0.00000000    
   12.1098375         0.00000000    
   12.2366304         0.00000000    
   12.3634224         0.00000000    
   12.4902153         0.00000000    
   12.6170082         0.00000000    
   12.7438011         0.00000000    
   12.8705931         0.00000000    
   12.9973860         0.00000000    
   13.1241789         0.00000000    
   13.2509708         0.00000000    
   13.3777637         0.00000000    
   13.5045567         0.00000000    
   13.6313496         0.00000000    
   13.7581415         0.00000000    
   13.8849344         0.00000000    
   14.0117273         0.00000000    
   14.1385202         0.00000000    
   14.2653122         0.00000000    
   14.3921051         0.00000000    
   14.5188980         0.00000000    
   14.6456909         0.00000000    
   14.7724829         0.00000000    
   14.8992758         0.00000000    
   15.0260687         0.00000000    
   15.1528606         0.00000000    
   15.2796535         0.00000000    
   15.4064465         0.00000000    
   15.5332394         0.00000000    
   15.6600313         0.00000000    
   15.7868242         0.00000000    
   15.9136171         0.00000000    
   16.0404091         0.00000000    
   16.1672020         0.00000000    
   16.2939949         0.00000000    
   16.4207878         0.00000000    
   16.5475807         0.00000000    
   16.6743736         0.00000000    
   16.8011646         0.00000000    
   16.9279575         0.00000000    
   17.0547504         0.00000000    
   17.1815434         0.00000000    
   17.3083363         0.00000000    
   17.4351292         0.00000000    
   17.5619221         0.00000000    
   17.6887150         0.00000000    
   17.8155060         0.00000000    
   17.9422989         0.00000000    
   18.0690918         0.00000000    
   18.1958847         0.00000000    
   18.3226776         0.00000000    
   18.4494705         0.00000000    
   18.5762634         0.00000000    
   18.7030544         0.00000000    
   18.8298473         0.00000000    
   18.9566402         0.00000000    
   19.0834332         0.00000000    
   19.2102261         0.00000000    
   19.3370190         0.00000000    
   19.4638119         0.00000000    
   19.5906048         0.00000000    
   19.7173958         0.00000000    
   19.8441887         0.00000000    
   19.9709816         0.00000000    
   20.0977745         0.00000000    
   20.2245674         0.00000000    
   20.3513603         0.00000000    
   20.4781532         0.00000000    
   20.6049442         0.00000000    
   20.7317371         0.00000000    
   20.8585300         0.00000000    
   20.9853230         0.00000000    
   21.1121159         0.00000000    
   21.2389088         0.00000000    
   21.3657017         0.00000000    
   21.4924946         0.00000000    
   21.6192856         0.00000000    
   21.7460785         0.00000000    
   21.8728714         0.00000000    
   21.9996643         0.00000000    
   22.1264572         0.00000000    
   22.2532501         0.00000000    
   22.3800430         0.00000000    
   22.5068340         0.00000000    
   22.6336269         0.00000000    
   22.7604198         0.00000000    
   22.8872128         0.00000000    
   23.0140057         0.00000000    
   23.1407986         0.00000000    
   23.2675915         0.00000000    
   23.3943844         0.00000000    
   23.5211754         0.00000000    
   23.6479683         0.00000000    
   23.7747612         0.00000000    
   23.9015541         0.00000000    
   24.0283470         0.00000000    
   24.1551399         0.00000000    
   24.2819328         0.00000000    
   24.4087238         0.00000000    
   24.5355167         0.00000000    
   24.6623096         0.00000000    
   24.7891026         0.00000000    
   24.9158955         0.00000000    
   25.0426884         0.00000000    
   25.1694813         0.00000000    
   25.2962742         0.00000000    
   25.4230652         0.00000000    
   25.5498581         0.00000000    
   25.6766510         0.00000000    
   25.8034439         0.00000000    
   25.9302368         0.00000000    
   26.0570297         0.00000000    
   26.1838226         0.00000000    
   26.3106136         0.00000000    
   26.4374065         0.00000000    
   26.5641994         0.00000000    
   26.6909924         0.00000000    
   26.8177853         0.00000000    
   26.9445782         0.00000000    
   27.0713711         0.00000000    
   27.1981640         0.00000000    
   27.3249550         0.00000000    
   27.4517479         0.00000000    
   27.5785408         0.00000000    
   27.7053337         0.00000000    
   27.8321266         0.00000000    
   27.9589195         0.00000000    
   28.0857124         0.00000000    
   28.2125034         0.00000000    
   28.3392963         0.00000000    
   28.4660892         0.00000000    
   28.5928822         0.00000000    
   28.7196751         0.00000000    
   28.8464680         0.00000000    
   28.9732609        -3.02675781E-33
   29.1000538        -9.32182008E-33
   29.2268448        -1.56167936E-32
   29.3536377        -2.19116864E-32
   29.4804306        -2.11605484E-32
   29.6072235        -1.41293099E-32
   29.7340164         4.15726021E-34
   29.8608093         1.63769667E-32
   29.9876022         3.58549522E-32
   30.1143932         2.77044770E-32
   30.2411861        -8.56257562E-33
   30.3679790        -6.72113639E-32
   30.4947720        -9.39060354E-32
   30.6215649        -3.61324423E-32
   30.7483578         1.03469693E-31
   30.8751507         1.72991050E-31
   31.0019417         1.50345457E-31
   31.1287346         3.53955073E-32
   31.2555275        -3.85294428E-32
   31.3823204         3.60937774E-32
   31.5091133         1.78442370E-31
   31.6359062         3.05859210E-31
   31.7626991         3.09079124E-31
   31.8894920         1.64745216E-31
   32.0162849         8.78611733E-32
   32.1430779        -3.29877510E-32
   32.2698708        -6.46136566E-32
   32.3966637        -2.45726421E-31
   32.5234528        -1.35233525E-30
   32.6502457        -3.32169200E-30
   32.7770386        -5.13241447E-30
   32.9038315        -3.98623074E-30
   33.0306244        -9.11340119E-30
   33.1574173        -1.89769972E-29
   33.2842102        -3.03731851E-29
   33.4110031        -3.24754159E-29
   33.5377960        -3.13135656E-29
   33.6645889        -2.98753172E-29
   33.7913818        -2.12081073E-29
   33.9181747        -3.43323884E-31
   34.0449677         3.59869790E-29
   34.1717606         8.94135967E-29
   34.2985535         1.57372659E-28
   34.4253426         2.32476717E-28
   34.5521355         3.15196780E-28
   34.6789284         3.94054511E-28
   34.8057213         4.61710504E-28
   34.9325142         5.16104062E-28
   35.0593071         5.47445635E-28
   35.1861000         5.45846632E-28
   35.3128929         5.04593068E-28
   35.4396858         4.18122713E-28
   35.5664787         2.83655199E-28
   35.6932716         9.00935283E-29
   35.8200645        -1.65898763E-28
   35.9468575        -4.93418100E-28
   36.0736504        -8.94795237E-28
   36.2004433        -1.36365104E-27
   36.3272324        -1.88484293E-27
   36.4540253        -2.41676783E-27
   36.5808182        -2.91980031E-27
   36.7076111        -3.34005248E-27
   36.8344040        -3.61509377E-27
   36.9611969        -3.69069306E-27
   37.0879898        -3.51134777E-27
   37.2147827        -3.02880795E-27
   37.3415756        -2.19693525E-27
   37.4683685        -9.72033984E-28
   37.5951614         6.72006887E-28
   37.7219543         2.74410158E-27
   37.8487473         5.21447227E-27
   37.9755402         8.01378602E-27
   38.1023293         1.10244221E-26
   38.2291222         1.40817804E-26
   38.3559151         1.69802787E-26
   38.4827080         1.94760189E-26
   38.6095009         2.12989255E-26
   38.7362938         2.21563387E-26
   38.8630867         2.17519813E-26
   38.9898796         1.97880920E-26
   39.1166725         1.59884094E-26
   39.2434654         1.01208335E-26
   39.3702583         2.02884471E-27
   39.4970512        -8.33069472E-27
   39.6238441        -2.08469806E-26
   39.7506371        -3.52275606E-26
   39.8774300        -5.09736710E-26
   40.0042191        -6.73702805E-26
   40.1310120        -8.34868814E-26
   40.2578049        -9.81942439E-26
   40.3845978        -1.10189669E-25
   40.5113907        -1.18034989E-25
   40.6381836        -1.20211567E-25
   40.7649765        -1.15192267E-25
   40.8917694        -1.01537905E-25
   41.0185623        -7.80145903E-26
   41.1453552        -4.37277648E-26
   41.2721481         1.73158339E-27
   41.3989410         5.81417111E-26
   41.5257339         1.24517417E-25
   41.6525269         1.99000271E-25
   41.7793198         2.78781743E-25
   41.9061089         3.60070950E-25
   42.0329018         4.38113872E-25
   42.1596947         5.07273307E-25
   42.2864876         5.61178145E-25
   42.4132805         5.92950504E-25
   42.5400734         5.95516570E-25
   42.6668663         5.62002455E-25
   42.7936592         4.86209291E-25
   42.9204521         3.63155742E-25
   43.0472450         1.89661883E-25
   43.1740379        -3.50536321E-26
   43.3008308        -3.08800513E-25
   43.4276237        -6.25909162E-25
   43.5544167        -9.76830287E-25
   43.6812096        -1.34788482E-24
   43.8079987        -1.72120930E-24
   43.9347916        -2.07493670E-24
   44.0615845        -2.38364952E-24
   44.1883774        -2.61914541E-24
   44.3151703        -2.75152337E-24
   44.4419632        -2.75060888E-24
   44.5687561        -2.58768879E-24
   44.6955490        -2.23752823E-24
   44.8223419        -1.68059184E-24
   44.9491348        -9.05379211E-25
   45.0759277         8.92428728E-26
   45.2027206         1.29184424E-24
   45.3295135         2.67653465E-24
   45.4563065         4.20152249E-24
   45.5830994         5.80830396E-24
   45.7098885         7.42164994E-24
   45.8366814         8.95054915E-24
   45.9634743         1.02902432E-23
   46.0902672         1.13254472E-23
   46.2170601         1.19348131E-23
   46.3438530         1.19966227E-23
   46.4706459         1.13955951E-23
   46.5974388         1.00306875E-23
   46.7242317         7.82359508E-24
   46.8510246         4.72759252E-24
   46.9778175         7.36333123E-25
   47.1046104        -4.10792493E-24
   47.2314034        -9.70721112E-24
   47.3581963        -1.59024734E-23
   47.4849892        -2.24705262E-23
   47.6117783        -2.91239526E-23
   47.7385712        -3.55145337E-23
   47.8653641        -4.12405911E-23
   47.9921570        -4.58586964E-23
   48.1189499        -4.88998372E-23
   48.2457428        -4.98900091E-23
   48.3725357        -4.83749449E-23
   48.4993286        -4.39483877E-23
   48.6261215        -3.62830704E-23
   48.7529144        -2.51632524E-23
   48.8797073        -1.05172490E-23
   49.0065002         7.55159190E-24
   49.1332932         2.87375748E-23
   49.2600861         5.25108322E-23
   49.3868790         7.81036036E-23
   49.5136681         1.04506210E-22
   49.6404610         1.30475372E-22
   49.7672539         1.54556178E-22
   49.8940468         1.75119106E-22
   50.0208397         1.90413352E-22
   50.1476326         1.98635794E-22
   50.2744255         1.98016015E-22
   50.4012184         1.86914546E-22
   50.5280113         1.63932869E-22
   50.6548042         1.28030509E-22
   50.7815971         7.86456773E-23
   50.9083900         1.58128304E-23
   51.0351830        -5.97292093E-23
   51.1619759        -1.46445186E-22
   51.2887688        -2.41936117E-22
   51.4155579        -3.42903775E-22
   51.5423508        -4.45155597E-22
   51.6691437        -5.43655572E-22
   51.7959366        -6.32629338E-22
   51.9227295        -7.05724811E-22
   52.0495224        -7.56233770E-22
   52.1763153        -7.77370244E-22
   52.3031082        -7.62605393E-22
   52.4299011        -7.06050352E-22
   52.5566940        -6.02876180E-22
   52.6834869        -4.49755275E-22
   52.8102798        -2.45308933E-22
   52.9370728         9.46562799E-24
   53.0638657         3.10810868E-22
   53.1906586         6.51896527E-22
   53.3174477         1.02260678E-21
   53.4442406         1.40945993E-21
   53.5710335         1.79568330E-21
   53.6978264         2.16147424E-21
   53.8246193         2.48446242E-21
   53.9514122         2.74038838E-21
   54.0782051         2.90400596E-21
   54.2049980         2.95019883E-21
   54.3317909         2.85529237E-21
   54.4585838         2.59853094E-21
   54.5853767         2.16367527E-21
   54.7121696         1.54065257E-21
   54.8389626         7.27191521E-22
   54.9657555        -2.69651514E-22
   55.0925484        -1.43217417E-21
   55.2193375        -2.73101838E-21
   55.3461304        -4.12458830E-21
   55.4729233        -5.55899057E-21
   55.5997162        -6.96860892E-21
   55.7265091        -8.27738232E-21
   55.8533020        -9.40086243E-21
   55.9800949        -1.02490626E-20
   56.1068878        -1.07301296E-20
   56.2336807        -1.07547341E-20
   56.3604736        -1.02411317E-20
   56.4872665        -9.12072527E-21
   56.6140594        -7.34392516E-21
   56.7408524        -4.88605652E-21
   56.8676453        -1.75300453E-21
   56.9944382         2.01372960E-21
   57.1212273         6.33295414E-21
   57.2480202         1.10810561E-20
   57.3748131         1.60910217E-20
   57.5016060         2.11535415E-20
   57.6283989         2.60205091E-20
   57.7551918         3.04111757E-20
   57.8819847         3.40210242E-20
   58.0087776         3.65334883E-20
   58.1355705         3.76342072E-20
   58.2623634         3.70277094E-20
   58.3891563         3.44558982E-20
   58.5159492         2.97177043E-20
   58.6427422         2.26891732E-20
   58.7695351         1.33428304E-20
   58.8963280         1.76533126E-21
   59.0231171        -1.18279347E-20
   59.1499100        -2.70824700E-20
   59.2767029        -4.34998678E-20
   59.4034958        -6.04397351E-20
   59.5302887        -7.71292413E-20
   59.6570816        -9.26813225E-20
   59.7838745        -1.06121728E-19
   59.9106674        -1.16425038E-19
   60.0374603        -1.22559293E-19
   60.1642532        -1.23538248E-19
   60.2910461        -1.18479677E-19
   60.4178391        -1.06667635E-19
   60.5446320        -8.76162371E-20
   60.6714249        -6.11315230E-20
   60.7982178        -2.73681365E-20
   60.9250069         1.31231623E-20
   61.0517998         5.93609752E-20
   61.1785927         1.09915824E-19
   61.3053856         1.62913015E-19
   61.4321785         2.16059356E-19
   61.5589714         2.66695437E-19
   61.6857643         3.11875603E-19
   61.8125572         3.48474571E-19
   61.9393501         3.73320000E-19
   62.0661430         3.83348842E-19
   62.1929359         3.75780268E-19
   62.3197289         3.48302000E-19
   62.4465218         2.99260349E-19
   62.5733147         2.27844806E-19
   62.7001076         1.34257165E-19
   62.8268967         1.98539244E-20
   62.9536896        -1.12749435E-19
   63.0804825        -2.59623793E-19
   63.2072754        -4.15530950E-19
   63.3340683        -5.73996343E-19
   63.4608612        -7.27456183E-19
   63.5876541        -8.67482403E-19
   63.7144470        -9.85084222E-19
   63.8412399        -1.07108371E-18
   63.9680328        -1.11655569E-18
   64.0948257        -1.11331666E-18
   64.2216187        -1.05444859E-18
   64.3484116        -9.34832172E-19
   64.4752045        -7.51664348E-19
   64.6019974        -5.04932191E-19
   64.7287903        -1.97811145E-19
   64.8555832         1.63042779E-19
   64.9823761         5.67336402E-19
   65.1091690         1.00114672E-18
   65.2359619         1.44711288E-18
   65.3627548         1.88482967E-18
   65.4895477         2.29145036E-18
   65.6163330         2.64249816E-18
   65.7431259         2.91286710E-18
   65.8699188         3.07799820E-18
   65.9967117         3.11518121E-18
   66.1235046         3.00494885E-18
   66.2502975         2.73248776E-18
   66.3770905         2.28901079E-18
   66.5038834         1.67300629E-18
   66.6306763         8.91292073E-19
   66.7574692        -4.02105097E-20
   66.8842621        -1.09605546E-18
   67.0110550        -2.24127275E-18
   67.1378479        -3.43184622E-18
   67.2646408        -4.61570463E-18
   67.3914337        -5.73424224E-18
   67.5182266        -6.72436875E-18
   67.6450195        -7.52103467E-18
   67.7718124        -8.06018851E-18
   67.8986053        -8.28206151E-18
   68.0253983        -8.13464717E-18
   68.1521912        -7.57725400E-18
   68.2789841        -6.58392589E-18
   68.4057770        -5.14657674E-18
   68.5325699        -3.27763638E-18
   68.6593628        -1.01200213E-18
   68.7861557         1.59186235E-18
   68.9129486         4.45185793E-18
   69.0397415         7.46332641E-18
   69.1665344         1.05013747E-17
   69.2933273         1.34244482E-17
   69.4201126         1.60791752E-17
   69.5469055         1.83063474E-17
   69.6736984         1.99479088E-17
   69.8004913         2.08546940E-17
   69.9272842         2.08946898E-17
   70.0540771         1.99613770E-17
   70.1808701         1.79818610E-17
   70.3076630         1.49242639E-17
   70.4344559         1.08040417E-17
   70.5612488         5.68868858E-18
   70.6880417        -2.99491494E-19
   70.8148346        -6.98295947E-18
   70.9416275        -1.41311152E-17
   71.0684204        -2.14652624E-17
   71.1952133        -2.86664272E-17
   71.3220062        -3.53859594E-17
   71.4487991        -4.12587300E-17
   71.5755920        -4.59185428E-17
   71.7023849        -4.90152523E-17
   71.8291779        -5.02329845E-17
   71.9559708        -4.93086466E-17
   72.0827637        -4.60499057E-17
   72.2095566        -4.03517132E-17
   72.3363495        -3.22104263E-17
   72.4631424        -2.17345362E-17
   72.5899353        -9.15134893E-18
   72.7167282         5.19140993E-18
   72.8435211         2.08294269E-17
   72.9703140         3.71914962E-17
   73.0971069         5.36152136E-17
   73.2238922         6.93685573E-17
   73.3506851         8.36768033E-17
   73.4774780         9.57540571E-17
   73.6042709         1.04838459E-16
   73.7310638         1.10229552E-16
   73.8578568         1.11326348E-16
   73.9846497         1.07664465E-16
   74.1114426         9.89501838E-17
   74.2382355         8.50899322E-17
   74.3650284         6.62128964E-17
   74.4918213         4.26856761E-17
   74.6186142         1.51169093E-17
   74.7454071        -1.56487931E-17
   74.8722000        -4.85483684E-17
   74.9989929        -8.23296702E-17
   75.1257858        -1.15591939E-16
   75.2525787        -1.46836960E-16
   75.3793716        -1.74528757E-16
   75.5061646        -1.97160471E-16
   75.6329575        -2.13325195E-16
   75.7597504        -2.21788232E-16
   75.8865433        -2.21557349E-16
   76.0133362        -2.11947085E-16
   76.1401291        -1.92634827E-16
   76.2669220        -1.63703411E-16
   76.3937149        -1.25669448E-16
   76.5205078        -7.94926789E-17
   76.6473007        -2.65660800E-17
   76.7740936         3.13151853E-17
   76.9008865         9.20060025E-17
   77.0276718         1.53083537E-16
   77.1544647         2.11938125E-16
   77.2812576         2.65879169E-16
   77.4080505         3.12253111E-16
   77.5348434         3.48567531E-16
   77.6616364         3.72617126E-16
   77.7884293         3.82604385E-16
   77.9152222         3.77250316E-16
   78.0420151         3.55887272E-16
   78.1688080         3.18530419E-16
   78.2956009         2.65920382E-16
   78.4223938         1.99534797E-16
   78.5491867         1.21565216E-16
   78.6759796         3.48583307E-17
   78.8027725        -5.71785819E-17
   78.9295654        -1.50705425E-16
   79.0563583        -2.41606593E-16
   79.1831512        -3.25671886E-16
   79.3099442        -3.98793832E-16
   79.4367371        -4.57173434E-16
   79.5635300        -4.97523754E-16
   79.6903229        -5.17260998E-16
   79.8171158        -5.14674212E-16
   79.9439087        -4.89061524E-16
   80.0707016        -4.40825724E-16
   80.1974945        -3.71518815E-16
   80.3242874        -2.83832932E-16
   80.4510803        -1.81532170E-16
   80.5778732        -6.93237109E-17
   80.7046585         4.73267185E-17
   80.8314514         1.62432650E-16
   80.9582443         2.69767685E-16
   81.0850372         3.63179590E-16
   81.2118301         4.36922914E-16
   81.3386230         4.85995212E-16
   81.4654160         5.06459952E-16
   81.5922089         4.95737256E-16
   81.7190018         4.52845942E-16
   81.8457947         3.78580582E-16
   81.9725876         2.75608533E-16
   82.0993805         1.48476273E-16
   82.2261734         3.51686219E-18
   82.3529663        -1.51346709E-16
   82.4797592        -3.06896872E-16
   82.6065521        -4.53011696E-16
   82.7333450        -5.79139031E-16
   82.8601379        -6.74833637E-16
   82.9869308        -7.30339389E-16
   83.1137238        -7.37187174E-16
   83.2405167        -6.88785646E-16
   83.3673096        -5.80963964E-16
   83.4941025        -4.12447632E-16
   83.6208954        -1.85226386E-16
   83.7476883         9.52071650E-17
   83.8744812         4.19771423E-16
   84.0012741         7.75889115E-16
   84.1280670         1.14775717E-15
   84.2548599         1.51681038E-15
   84.3816528         1.86236351E-15
   84.5084381         2.16242217E-15
   84.6352310         2.39463901E-15
   84.7620239         2.53738016E-15
   84.8888168         2.57086167E-15
   85.0156097         2.47830871E-15
   85.1424026         2.24708947E-15
   85.2691956         1.86975726E-15
   85.3959885         1.34496095E-15
   85.5227814         6.78151306E-16
   85.6495743        -1.17958444E-16
   85.7763672        -1.02320606E-15
   85.9031601        -2.01013624E-15
   86.0299530        -3.04448417E-15
   86.1567459        -4.08601198E-15
   86.2835388        -5.08970197E-15
   86.4103317        -6.00725126E-15
   86.5371246        -6.78886404E-15
   86.6639175        -7.38526841E-15
   86.7907104        -7.74988052E-15
   86.9175034        -7.84107463E-15
   87.0442963        -7.62440614E-15
   87.1710892        -7.07475841E-15
   87.2978821        -6.17826340E-15
   87.4246750        -4.93392203E-15
   87.5514679        -3.35482582E-15
   87.6782608        -1.46889955E-15
   87.8050537         6.80901040E-16
   87.9318466         3.03699767E-15
   88.0586395         5.52822194E-15
   88.1854324         8.07148029E-15
   88.3122177         1.05740315E-14
   88.4390106         1.29363361E-14
   88.5658035         1.50553940E-14
   88.6925964         1.68284847E-14
   88.8193893         1.81571761E-14
   88.9461823         1.89514881E-14
   89.0729752         1.91339966E-14
   89.1997681         1.86438304E-14
   89.3265610         1.74402407E-14
   89.4533539         1.55057225E-14
   89.5801468         1.28484437E-14
   89.7069397         9.50387823E-15
   89.8337326         5.53551320E-15
   89.9605255         1.03456551E-15
   90.0873184        -3.88137729E-15
   90.2141113        -9.07079791E-15
   90.3409042        -1.43717130E-14
   90.4676971        -1.96061818E-14
   90.5944901        -2.45856497E-14
   90.7212830        -2.91170896E-14
   90.8480759        -3.30096363E-14
   90.9748688        -3.60816554E-14
   91.1016617        -3.81678298E-14
   91.2284546        -3.91262137E-14
   91.3552475        -3.88447785E-14
   91.4820404        -3.72473557E-14
   91.6088333        -3.42986510E-14
   91.7356262        -3.00080463E-14
   91.8624191        -2.44320792E-14
   91.9892120        -1.76753957E-14
   92.1159973        -9.88998634E-15
   92.2427902        -1.27277161E-15
   92.3695831         7.93864350E-15
   92.4963760         1.74718333E-14
   92.6231689         2.70270189E-14
   92.7499619         3.62859292E-14
   92.8767548         4.49218740E-14
   93.0035477         5.26105716E-14
   93.1303406         5.90416659E-14
   93.2571335         6.39303064E-14
   93.3839264         6.70284683E-14
   93.5107193         6.81356826E-14
   93.6375122         6.71086518E-14
   93.7643051         6.38693335E-14
   93.8910980         5.84112226E-14
   94.0178909         5.08035217E-14
   94.1446838         4.11925878E-14
   94.2714767         2.98010856E-14
   94.3982697         1.69240825E-14
   94.5250626         2.92251354E-15
   94.6518555        -1.17861492E-14
   94.7786484        -2.67396968E-14
   94.9054413        -4.14452916E-14
   95.0322342        -5.53954398E-14
   95.1590271        -6.80853621E-14
   95.2858200        -7.90311149E-14
   95.4126129        -8.77882226E-14
   95.5394058        -9.39695573E-14
   95.6661987        -9.72622590E-14
   95.7929916        -9.74429820E-14
   95.9197769        -9.43903836E-14
   96.0465698        -8.80946927E-14
   96.1733627        -7.86637804E-14
   96.3001556        -6.63248482E-14
   96.4269485        -5.14219913E-14
   96.5537415        -3.44090228E-14
   96.6805344        -1.58379237E-14
   96.8073273         3.65733241E-15
   96.9341202         2.33808131E-14
   97.0609131         4.25983643E-14
   97.1877060         6.05641364E-14
   97.3144989         7.65490305E-14
   97.4412918         8.98702838E-14
   97.5680847         9.99209667E-14
   97.6948776         1.06198091E-13
   97.8216705         1.08328487E-13
   97.9484634         1.06090951E-13
   98.0752563         9.94337601E-14