  -4.50000000         0.00000000    
  -4.37320757         0.00000000    
  -4.24641466         0.00000000    
  -4.11962223         0.00000000    
  -3.99282932         0.00000000    
  -3.86603665         0.00000000    
  -3.73924398         0.00000000    
  -3.61245155         0.00000000    
  -3.48565888         0.00000000    
  -3.35886621         0.00000000    
  -3.23207355         0.00000000    
  -3.10528088         0.00000000    
  -2.97848821         0.00000000    
  -2.85169554         0.00000000    
  -2.72490287         0.00000000    
  -2.59811020         0.00000000    
  -2.47131753         0.00000000    
  -2.34452486         0.00000000    
  -2.21773219         0.00000000    
  -2.09093952         0.00000000    
  -1.96414697         0.00000000    
  -1.83735430         0.00000000    
  -1.71056163         0.00000000    
  -1.58376896         0.00000000    
  -1.45697629         0.00000000    
  -1.33018374         0.00000000    
  -1.20339108         0.00000000    
  -1.07659841         0.00000000    
 -0.949805737         0.00000000    
 -0.823013067         0.00000000    
 -0.696220458         0.00000000    
 -0.569427788         0.00000000    
 -0.442635119         0.00000000    
 -0.315842479         0.00000000    
 -0.189049825         0.00000000    
  -6.22571707E-02     0.00000000    
   6.45354837E-02     0.00000000    
  0.191328138         0.00000000    
  0.318120778         0.00000000    
  0.444913447         0.00000000    
  0.571706116         0.00000000    
  0.698498726         0.00000000    
  0.825291395         0.00000000    
  0.952084064         0.00000000    
   1.07887673         0.00000000    
   1.20566940         0.00000000    
   1.33246195         0.00000000    
   1.45925462         0.00000000    
   1.58604729         0.00000000    
   1.71283996         0.00000000    
   1.83963263         0.00000000    
   1.96642530         0.00000000    
   2.09321785         0.00000000    
   2.22001052         0.00000000    
   2.34680319         0.00000000    
   2.47359586         0.00000000    
   2.60038853         0.00000000    
   2.72718120         0.00000000    
   2.85397387         0.00000000    
   2.98076653         0.00000000    
   3.10755920         0.00000000    
   3.23435187         0.00000000    
   3.36114454         0.00000000    
   3.48793697         0.00000000    
   3.61472964         0.00000000    
   3.74152231         0.00000000    
   3.86831498         0.00000000    
   3.99510765         0.00000000    
   4.12190056         0.00000000    
   4.24869299         0.00000000    
   4.37548542         0.00000000    
   4.50227833         0.00000000    
   4.62907076         0.00000000    
   4.75586367         0.00000000    
   4.88265610         0.00000000    
   5.00944901         0.00000000    
   5.13624144         0.00000000    
   5.26303434         0.00000000    
   5.38982677         0.00000000    
   5.51661968         0.00000000    
   5.64341211         0.00000000    
   5.77020502         0.00000000    
   5.89699745         0.00000000    
   6.02379036         0.00000000    
   6.15058279         0.00000000    
   6.27737522         0.00000000    
   6.40416813         0.00000000    
   6.53096056         0.00000000    
   6.65775347         0.00000000    
   6.78454590         0.00000000    
   6.91133881         0.00000000    
   7.03813124         0.00000000    
   7.16492414         0.00000000    
   7.29171658         0.00000000    
   7.41850948         0.00000000    
   7.54530191         0.00000000    
   7.67209482         0.00000000    
   7.79888725         0.00000000    
   7.92567968         0.00000000    
   8.05247211         0.00000000    
   8.17926502         0.00000000    
   8.30605793         0.00000000    
   8.43285084         0.00000000    
   8.55964279         0.00000000    
   8.68643570         0.00000000    
   8.81322861         0.00000000    
   8.94002151         0.00000000    
   9.06681347         0.00000000    
   9.19360638         0.00000000    
   9.32039928         0.00000000    
   9.44719219         0.00000000    
   9.57398415         0.00000000    
   9.70077705         0.00000000    
   9.82756996         0.00000000    
   9.95436192         0.00000000    
   10.0811548         0.00000000    
   10.2079477         0.00000000    
   10.3347406         0.00000000    
   10.4615326         0.00000000    
   10.5883255         0.00000000    
   10.7151184         0.00000000    
   10.8419113         0.00000000    
   10.9687033         0.00000000    
   11.0954962         0.00000000    
   11.2222891         0.00000000    
   11.3490820         0.00000000    
   11.4758739         0.00000000    
   11.6026669         0.00000000    
   11.7294598         0.00000000    
   11.8562517         0.00000000    
   11.9830446         0.00000000    
   12.1098375         0.00000000    
   12.2366304         0.00000000    
   12.3634224         0.00000000    
   12.4902153         0.00000000    
   12.6170082         0.00000000    
   12.7438011         0.00000000    
   12.8705931         0.00000000    
   12.9973860         0.00000000    
   13.1241789         0.00000000    
   13.2509708         0.00000000    
   13.3777637         0.00000000    
   13.5045567         0.00000000    
   13.6313496         0.00000000    
   13.7581415         0.00000000    
   13.8849344         0.00000000    
   14.0117273         0.00000000    
   14.1385202         0.00000000    
   14.2653122         0.00000000    
   14.3921051         0.00000000    
   14.5188980         0.00000000    
   14.6456909         0.00000000    
   14.7724829         0.00000000    
   14.8992758         0.00000000    
   15.0260687         0.00000000    
   15.1528606         0.00000000    
   15.2796535         0.00000000    
   15.4064465         0.00000000    
   15.5332394         0.00000000    
   15.6600313         0.00000000    
   15.7868242         0.00000000    
   15.9136171         0.00000000    
   16.0404091         0.00000000    
   16.1672020         0.00000000    
   16.2939949         0.00000000    
   16.4207878         0.00000000    
   16.5475807         0.00000000    
   16.6743736         0.00000000    
   16.8011646         0.00000000    
   16.9279575         0.00000000    
   17.0547504         0.00000000    
   17.1815434         0.00000000    
   17.3083363         0.00000000    
   17.4351292         0.00000000    
   17.5619221         0.00000000    
   17.6887150         0.00000000    
   17.8155060         0.00000000    
   17.9422989         0.00000000    
   18.0690918         0.00000000    
   18.1958847         0.00000000    
   18.3226776         0.00000000    
   18.4494705         0.00000000    
   18.5762634         0.00000000    
   18.7030544         0.00000000    
   18.8298473         0.00000000    
   18.9566402         0.00000000    
   19.0834332         0.00000000    
   19.2102261         0.00000000    
   19.3370190         0.00000000    
   19.4638119         0.00000000    
   19.5906048         0.00000000    
   19.7173958         0.00000000    
   19.8441887         0.00000000    
   19.9709816         0.00000000    
   20.0977745         0.00000000    
   20.2245674         0.00000000    
   20.3513603         0.00000000    
   20.4781532         0.00000000    
   20.6049442         0.00000000    
   20.7317371         0.00000000    
   20.8585300         0.00000000    
   20.9853230         0.00000000    
   21.1121159         0.00000000    
   21.2389088         0.00000000    
   21.3657017         0.00000000    
   21.4924946         0.00000000    
   21.6192856         0.00000000    
   21.7460785         0.00000000    
   21.8728714         0.00000000    
   21.9996643         0.00000000    
   22.1264572         0.00000000    
   22.2532501         0.00000000    
   22.3800430         0.00000000    
   22.5068340         0.00000000    
   22.6336269         0.00000000    
   22.7604198         0.00000000    
   22.8872128         0.00000000    
   23.0140057         0.00000000    
   23.1407986         0.00000000    
   23.2675915         0.00000000    
   23.3943844         0.00000000    
   23.5211754         0.00000000    
   23.6479683         0.00000000    
   23.7747612         0.00000000    
   23.9015541         0.00000000    
   24.0283470         0.00000000    
   24.1551399         0.00000000    
   24.2819328         0.00000000    
   24.4087238         0.00000000    
   24.5355167         0.00000000    
   24.6623096         0.00000000    
   24.7891026         0.00000000    
   24.9158955         0.00000000    
   25.0426884         0.00000000    
   25.1694813         0.00000000    
   25.2962742         0.00000000    
   25.4230652         0.00000000    
   25.5498581         0.00000000    
   25.6766510         0.00000000    
   25.8034439         0.00000000    
   25.9302368         0.00000000    
   26.0570297         0.00000000    
   26.1838226         0.00000000    
   26.3106136         0.00000000    
   26.4374065         0.00000000    
   26.5641994         0.00000000    
   26.6909924         0.00000000    
   26.8177853         0.00000000    
   26.9445782         0.00000000    
   27.0713711         0.00000000    
   27.1981640         0.00000000    
   27.3249550         0.00000000    
   27.4517479         0.00000000    
   27.5785408         0.00000000    
   27.7053337         0.00000000    
   27.8321266         0.00000000    
   27.9589195         0.00000000    
   28.0857124         0.00000000    
   28.2125034         0.00000000    
   28.3392963         0.00000000    
   28.4660892         0.00000000    
   28.5928822         0.00000000    
   28.7196751         0.00000000    
   28.8464680         0.00000000    
   28.9732609         2.49512378E-33
   29.1000538         7.68457465E-33
   29.2268448         1.28741684E-32
   29.3536377         1.80638952E-32
   29.4804306         1.74453956E-32
   29.6072235         1.16498536E-32
   29.7340164        -3.06320052E-33
   29.8608093        -2.24188593E-32
   29.9876022        -4.87995048E-32
   30.1143932        -7.36862337E-32
   30.2411861        -8.97166441E-32
   30.3679790        -7.87088977E-32
   30.4947720        -6.39588181E-32
   30.6215649        -8.11411072E-32
   30.7483578        -1.29043654E-31
   30.8751507        -1.35771749E-31
   31.0019417        -7.98025247E-32
   31.1287346         5.27273516E-32
   31.2555275         2.24954166E-31
   31.3823204         4.16927957E-31
   31.5091133         6.17804143E-31
   31.6359062         7.87918300E-31
   31.7626991         9.24564205E-31
   31.8894920         9.97956430E-31
   32.0162849         9.67810454E-31
   32.1430779         1.02713549E-30
   32.2698708         9.82073902E-31
   32.3966637         7.75213228E-31
   32.5234528         8.58473399E-31
   32.6502457         1.48277854E-30
   32.7770386         2.80020659E-30
   32.9038315         2.27072313E-30
   33.0306244         4.84086817E-30
   33.1574173         1.13275751E-29
   33.2842102         2.04654326E-29
   33.4110031         2.53242966E-29
   33.5377960         2.76057201E-29
   33.6645889         2.80308330E-29
   33.7913818         2.16777619E-29
   33.9181747         9.45021625E-30
   34.0449677        -6.71830568E-30
   34.1717606        -2.41641059E-29
   34.2985535        -3.80012941E-29
   34.4253426        -5.33457558E-29
   34.5521355        -6.45476745E-29
   34.6789284        -6.59348135E-29
   34.8057213        -5.79435163E-29
   34.9325142        -4.28518811E-29
   35.0593071        -1.16284581E-29
   35.1861000         4.13255064E-29
   35.3128929         1.22743018E-28
   35.4396858         2.24815199E-28
   35.5664787         3.47810791E-28
   35.6932716         4.86031436E-28
   35.8200645         6.27075808E-28
   35.9468575         7.62485054E-28
   36.0736504         8.80121385E-28
   36.2004433         9.62860490E-28
   36.3272324         9.95526188E-28
   36.4540253         9.67920583E-28
   36.5808182         8.67863611E-28
   36.7076111         6.88911978E-28
   36.8344040         4.23316224E-28
   36.9611969         6.46919206E-29
   37.0879898        -3.87482420E-28
   37.2147827        -9.38494010E-28
   37.3415756        -1.58494973E-27
   37.4683685        -2.31603437E-27
   37.5951614        -3.10586017E-27
   37.7219543        -3.91164422E-27
   37.8487473        -4.68016654E-27
   37.9755402        -5.34214448E-27
   38.1023293        -5.81013043E-27
   38.2291222        -5.99117786E-27
   38.3559151        -5.78895445E-27
   38.4827080        -5.11057490E-27
   38.6095009        -3.88048460E-27
   38.7362938        -2.04625261E-27
   38.8630867         4.16907066E-28
   38.9898796         3.48927815E-27
   39.1166725         7.09803638E-27
   39.2434654         1.11163559E-26
   39.3702583         1.53513349E-26
   39.4970512         1.95505725E-26
   39.6238441         2.34066879E-26
   39.7506371         2.65653193E-26
   39.8774300         2.86371176E-26
   40.0042191         2.92171276E-26
   40.1310120         2.79083365E-26
   40.2578049         2.43468098E-26
   40.3845978         1.82361576E-26
   40.5113907         9.38306752E-27
   40.6381836        -2.26427289E-27
   40.7649765        -1.65778919E-26
   40.8917694        -3.32152966E-26
   41.0185623        -5.15904617E-26
   41.1453552        -7.08555851E-26
   41.2721481        -8.98978369E-26
   41.3989410        -1.07353110E-25
   41.5257339        -1.21642894E-25
   41.6525269        -1.31032015E-25
   41.7793198        -1.33715818E-25
   41.9061089        -1.27929967E-25
   42.0329018        -1.12082898E-25
   42.1596947        -8.49079527E-26
   42.2864876        -4.56264976E-26
   42.4132805         5.88575207E-27
   42.5400734         6.89415805E-26
   42.6668663         1.41905871E-25
   42.7936592         2.22097181E-25
   42.9204521         3.05736405E-25
   43.0472450         3.87962434E-25
   43.1740379         4.62922709E-25
   43.3008308         5.23952391E-25
   43.4276237         5.63845925E-25
   43.5544167         5.75224109E-25
   43.6812096         5.50991091E-25
   43.8079987         4.84869855E-25
   43.9347916         3.71996629E-25
   44.0615845         2.09548574E-25
   44.1883774        -2.63045284E-27
   44.3151703        -2.61451948E-25
   44.4419632        -5.60093264E-25
   44.5687561        -8.87658535E-25
   44.6955490        -1.22903356E-24
   44.8223419        -1.56498634E-24
   44.9491348        -1.87256449E-24
   45.0759277        -2.12581369E-24
   45.2027206        -2.29683400E-24
   45.3295135        -2.35718955E-24
   45.4563065        -2.27962875E-24
   45.5830994        -2.04007910E-24
   45.7098885        -1.61983604E-24
   45.8366814        -1.00785155E-24
   45.9634743        -2.02978496E-25
   46.0902672         7.83962178E-25
   46.2170601         1.92846948E-24
   46.3438530         3.19118158E-24
   46.4706459         4.51740566E-24
   46.5974388         5.83750128E-24
   46.7242317         7.06828837E-24
   46.8510246         8.11557459E-24
   46.9778175         8.87783589E-24
   47.1046104         9.25105703E-24
   47.2314034         9.13465666E-24
   47.3581963         8.43829601E-24
   47.4849892         7.08936279E-24
   47.6117783         5.04074743E-24
   47.7385712         2.27853736E-24
   47.8653641        -1.17089934E-24
   47.9921570        -5.23494920E-24
   48.1189499        -9.79048170E-24
   48.2457428        -1.46618145E-23
   48.3725357        -1.96214746E-23
   48.4993286        -2.43941304E-23
   48.6261215        -2.86640625E-23
   48.7529144        -3.20864282E-23
   48.8797073        -3.43020261E-23
   49.0065002        -3.49557299E-23
   49.1332932        -3.37177610E-23
   49.2600861        -3.03072093E-23
   49.3868790        -2.45168692E-23
   49.5136681        -1.62380706E-23
   49.6404610        -5.48408765E-24
   49.7672539         7.58924738E-24
   49.8940468         2.26676815E-23
   50.0208397         3.92689373E-23
   50.1476326         5.67407454E-23
   50.2744255         7.42681303E-23
   50.4012184         9.08911777E-23
   50.5280113         1.05533238E-22
   50.6548042         1.17040566E-22
   50.7815971         1.24232491E-22
   50.9083900         1.25961018E-22
   51.0351830         1.21178489E-22
   51.1619759         1.09010442E-22
   51.2887688         8.88307677E-23
   51.4155579         6.03357928E-23
   51.5423508         2.36126011E-23
   51.6691437        -2.08023946E-23
   51.7959366        -7.18787969E-23
   51.9227295        -1.28067731E-22
   52.0495224        -1.87298487E-22
   52.1763153        -2.47003027E-22
   52.3031082        -3.04169518E-22
   52.4299011        -3.55425358E-22
   52.5566940        -3.97153146E-22
   52.6834869        -4.25634256E-22
   52.8102798        -4.37221449E-22
   52.9370728        -4.28531509E-22
   53.0638657        -3.96656126E-22
   53.1906586        -3.39378841E-22
   53.3174477        -2.55393125E-22
   53.4442406        -1.44506292E-22
   53.5710335        -7.82190219E-24
   53.6978264         1.52112540E-22
   53.8246193         3.31207101E-22
   53.9514122         5.23785617E-22
   54.0782051         7.22614563E-22
   54.2049980         9.19004830E-22
   54.3317909         1.10300102E-21
   54.4585838         1.26365450E-21
   54.5853767         1.38938787E-21
   54.7121696         1.46843996E-21
   54.8389626         1.48939069E-21
   54.9657555         1.44174713E-21
   55.0925484         1.31658275E-21
   55.2193375         1.10719983E-21
   55.3461304         8.09798056E-22
   55.4729233         4.24114089E-22
   55.5997162        -4.59952451E-23
   55.7265091        -5.92068761E-22
   55.8533020        -1.20067740E-21
   55.9800949        -1.85324263E-21
   56.1068878        -2.52604420E-21
   56.2336807        -3.19047520E-21
   56.3604736        -3.81355546E-21
   56.4872665        -4.35873615E-21
   56.6140594        -4.78700932E-21
   56.7408524        -5.05831123E-21
   56.8676453        -5.13322762E-21
   56.9944382        -4.97495986E-21
   57.1212273        -4.55151608E-21
   57.2480202        -3.83806230E-21
   57.3748131        -2.81935303E-21
   57.5016060        -1.49214073E-21
   57.6283989         1.32561133E-22
   57.7551918         2.02747946E-21
   57.8819847         4.14751308E-21
   58.0087776         6.42875240E-21
   58.1355705         8.78824309E-21
   58.2623634         1.11246075E-20
   58.3891563         1.33197404E-20
   58.5159492         1.52416187E-20
   58.6427422         1.67483459E-20
   58.7695351         1.76934095E-20
   58.8963280         1.79321965E-20
   59.0231171         1.73295502E-20
   59.1499100         1.57683663E-20
   59.2767029         1.31587052E-20
   59.4034958         9.44734610E-21
   59.5302887         4.62713081E-21
   59.6570816        -1.25430055E-21
   59.7838745        -8.08699750E-21
   59.9106674        -1.56931090E-20
   60.0374603        -2.38236789E-20
   60.1642532        -3.21587530E-20
   60.2910461        -4.03110639E-20
   60.4178391        -4.78340163E-20
   60.5446320        -5.42343489E-20
   60.6714249        -5.89894742E-20
   60.7982178        -6.15695022E-20
   60.9250069        -6.14638170E-20
   61.0517998        -5.82112846E-20
   61.1785927        -5.14333118E-20
   61.3053856        -4.08685448E-20
   61.4321785        -2.64074163E-20
   61.5589714        -8.12468430E-21
   61.6857643         1.36918748E-20
   61.8125572         3.85194682E-20
   61.9393501         6.55866402E-20
   62.0661430         9.38710538E-20
   62.1929359         1.22109837E-19
   62.3197289         1.48825198E-19
   62.4465218         1.72365647E-19
   62.5733147         1.90964157E-19
   62.7001076         2.02812356E-19
   62.8268967         2.06149552E-19
   62.9536896         1.99364809E-19
   63.0804825         1.81108520E-19
   63.2072754         1.50408034E-19
   63.3340683         1.06783750E-19
   63.4608612         5.03572984E-20
   63.5876541        -1.80537952E-20
   63.7144470        -9.68636511E-20
   63.8412399        -1.83674499E-19
   63.9680328        -2.75269319E-19
   64.0948257        -3.67648281E-19
   64.2216187        -4.56112301E-19
   64.3484116        -5.35398028E-19
   64.4752045        -5.99865642E-19
   64.6019974        -6.43737337E-19
   64.7287903        -6.61380272E-19
   64.8555832        -6.47631083E-19
   64.9823761        -5.98142314E-19
   65.1091690        -5.09745193E-19
   65.2359619        -3.80803633E-19
   65.3627548        -2.11545160E-19
   65.4895477        -4.34310938E-21
   65.6163330         2.36070910E-19
   65.7431259         5.02485546E-19
   65.8699188         7.85203523E-19
   65.9967117         1.07216473E-18
   66.1235046         1.34921244E-18
   66.2502975         1.60051435E-18
   66.3770905         1.80913437E-18
   66.5038834         1.95774936E-18
   66.6306763         2.02949694E-18
   66.7574692         2.00892351E-18
   66.8842621         1.88300470E-18
   67.0110550         1.64218337E-18
   67.1378479         1.28138693E-18
   67.2646408         8.00956919E-19
   67.3914337         2.07429407E-19
   67.5182266        -4.85889614E-19
   67.6450195        -1.25862344E-18
   67.7718124        -2.08334392E-18
   67.8986053        -2.92596571E-18
   68.0253983        -3.74653798E-18
   68.1521912        -4.50045769E-18
   68.2789841        -5.14009743E-18
   68.4057770        -5.61681154E-18
   68.5325699        -5.88328778E-18
   68.6593628        -5.89615002E-18
   68.7861557        -5.61872481E-18
   68.9129486        -5.02384009E-18
   69.0397415        -4.09653009E-18
   69.1665344        -2.83647160E-18
   69.2933273        -1.26000897E-18
   69.4201126         5.98409597E-19
   69.5469055         2.68551424E-18
   69.6736984         4.92937855E-18
   69.8004913         7.24054599E-18
   69.9272842         9.51420411E-18
   70.0540771         1.16334326E-17
   70.1808701         1.34734851E-17
   70.3076630         1.49070304E-17
   70.4344559         1.58102058E-17
   70.5612488         1.60692755E-17
   70.6880417         1.55876231E-17
   70.8148346         1.42927942E-17
   70.9416275         1.21431694E-17
   71.0684204         9.13396821E-18
   71.1952133         5.30210861E-18
   71.3220062         7.29609593E-19
   71.4487991        -4.45489617E-18
   71.5755920        -1.00767556E-17
   71.7023849        -1.59183448E-17
   71.8291779        -2.17245819E-17
   71.9559708        -2.72110277E-17
   72.0827637        -3.20744179E-17
   72.2095566        -3.60054317E-17
   72.3363495        -3.87032680E-17
   72.4631424        -3.98915295E-17
   72.5899353        -3.93347542E-17
   72.7167282        -3.68548800E-17
   72.8435211        -3.23467523E-17
   72.9703140        -2.57917942E-17
   73.0971069        -1.72688991E-17
   73.2238922        -6.96180350E-18
   73.3506851         4.83801728E-18
   73.4774780         1.77334371E-17
   73.6042709         3.12292974E-17
   73.7310638         4.47457628E-17
   73.8578568         5.76374091E-17
   73.9846497         6.92178053E-17
   74.1114426         7.87886159E-17
   74.2382355         8.56729092E-17
   74.3650284         8.92507698E-17
   74.4918213         8.89961305E-17
   74.6186142         8.45130167E-17
   74.7454071         7.55691164E-17
   74.8722000         6.21250558E-17
   74.9989929         4.43570210E-17
   75.1257858         2.26713100E-17
   75.2525787        -2.29125762E-18
   75.3793716        -2.96619291E-17
   75.5061646        -5.83628531E-17
   75.6329575        -8.71381703E-17
   75.7597504        -1.14597589E-16
   75.8865433        -1.39270785E-16
   76.0133362        -1.59672368E-16
   76.1401291        -1.74373564E-16
   76.2669220        -1.82079314E-16
   76.3937149        -1.81706633E-16
   76.5205078        -1.72460527E-16
   76.6473007        -1.53903610E-16
   76.7740936        -1.26015341E-16
   76.9008865        -8.92362180E-17
   77.0276718        -4.44941246E-17
   77.1544647         6.79118881E-18
   77.2812576         6.27276205E-17
   77.4080505         1.20995996E-16
   77.5348434         1.78921059E-16
   77.6616364         2.33567721E-16
   77.7884293         2.81860775E-16
   77.9152222         3.20723176E-16
   78.0420151         3.47229775E-16
   78.1688080         3.58768878E-16
   78.2956009         3.53205275E-16
   78.4223938         3.29036989E-16
   78.5491867         2.85536156E-16
   78.6759796         2.22867233E-16
   78.8027725         1.42172693E-16
   78.9295654         4.56194707E-17
   79.0563583        -6.36003159E-17
   79.1831512        -1.81318718E-16
   79.3099442        -3.02495185E-16
   79.4367371        -4.21372607E-16
   79.5635300        -5.31685493E-16
   79.6903229        -6.26914125E-16
   79.8171158        -7.00578515E-16
   79.9439087        -7.46559223E-16
   80.0707016        -7.59436453E-16
   80.1974945        -7.34828769E-16
   80.3242874        -6.69717029E-16
   80.4510803        -5.62737562E-16
   80.5778732        -4.14424104E-16
   80.7046585        -2.27384751E-16
   80.8314514        -6.39907625E-18
   80.9582443         2.41580388E-16
   81.0850372         5.07528272E-16
   81.2118301         7.80555684E-16
   81.3386230         1.04822847E-15
   81.4654160         1.29699167E-15
   81.5922089         1.51268819E-15
   81.7190018         1.68116114E-15
   81.8457947         1.78891431E-15
   81.9725876         1.82381059E-15
   82.0993805         1.77577747E-15
   82.2261734         1.63748843E-15
   82.3529663         1.40498562E-15
   82.4797592         1.07821238E-15
   82.6065521         6.61419282E-16
   82.7333450         1.63415512E-16
   82.8601379        -4.02359973E-16
   82.9869308        -1.01797023E-15
   83.1137238        -1.66132437E-15
   83.2405167        -2.30674240E-15
   83.3673096        -2.92573100E-15
   83.4941025        -3.48796076E-15
   83.6208954        -3.96241505E-15
   83.7476883        -4.31868007E-15
   83.8744812        -4.52832538E-15
   84.0012741        -4.56633387E-15
   84.1280670        -4.41250887E-15
   84.2548599        -4.05281040E-15
   84.3816528        -3.48054351E-15
   84.5084381        -2.69734317E-15
   84.6352310        -1.71389568E-15
   84.7620239        -5.50335941E-16
   84.8888168         7.63714128E-16
   85.0156097         2.18950457E-15
   85.1424026         3.67992871E-15
   85.2691956         5.18070889E-15
   85.3959885         6.63198422E-15
   85.5227814         7.97026070E-15
   85.6495743         9.13067805E-15
   85.7763672         1.00495199E-14
   85.9031601         1.06668875E-14
   86.0299530         1.09294398E-14
   86.1567459         1.07930895E-14
   86.2835388         1.02255401E-14
   86.4103317         9.20856781E-15
   86.5371246         7.73990247E-15
   86.6639175         5.83463569E-15
   86.7907104         3.52604908E-15
   86.9175034         8.65783557E-16
   87.0442963        -2.07669122E-15
   87.1710892        -5.21535931E-15
   87.2978821        -8.44965594E-15
   87.4246750        -1.16672004E-14
   87.5514679        -1.47471790E-14
   87.6782608        -1.75642768E-14
   87.8050537        -1.99930929E-14
   87.9318466        -2.19128491E-14
   88.0586395        -2.32122450E-14
   88.1854324        -2.37943210E-14
   88.3122177        -2.35810551E-14
   88.4390106        -2.25176103E-14
   88.5658035        -2.05759668E-14
   88.6925964        -1.77577849E-14
   88.8193893        -1.40963765E-14
   88.9461823        -9.65759692E-15
   89.0729752        -4.53959854E-15
   89.1997681         1.12859528E-15
   89.3265610         7.18977405E-15
   89.4533539         1.34623859E-14
   89.5801468         1.97455289E-14
   89.7069397         2.58249029E-14
   89.8337326         3.14796203E-14
   89.9605255         3.64896407E-14
   90.0873184         4.06435648E-14
   90.2141113         4.37465819E-14
   90.3409042         4.56282249E-14
   90.4676971         4.61496889E-14
   90.5944901         4.52103903E-14
   90.7212830         4.27535306E-14
   90.8480759         3.87703379E-14
   90.9748688         3.33028621E-14
   91.1016617         2.64450971E-14
   91.2284546         1.83423104E-14
   91.3552475         9.18855497E-15
   91.4820404        -7.77679107E-16
   91.6088333        -1.12795363E-14
   91.7356262        -2.20095023E-14
   91.8624191        -3.26385240E-14
   91.9892120        -4.28262467E-14
   92.1159973        -5.22320597E-14
   92.2427902        -6.05266366E-14
   92.3695831        -6.74034396E-14
   92.4963760        -7.25899579E-14
   92.6231689        -7.58580956E-14
   92.7499619        -7.70333572E-14
   92.8767548        -7.60025113E-14
   93.0035477        -7.27192761E-14
   93.1303406        -6.72079308E-14
   93.2571335        -5.95643801E-14
   93.3839264        -4.99548692E-14
   93.5107193        -3.86120477E-14
   93.6375122        -2.58285960E-14
   93.7643051        -1.19485314E-14
   93.8910980         2.64356781E-15
   94.0178909         1.75349339E-14
   94.1446838         3.22984708E-14
   94.2714767         4.65072012E-14
   94.3982697         5.97490604E-14
   94.5250626         7.16413487E-14
   94.6518555         8.18442739E-14
   94.7786484         9.00729889E-14
   94.9054413         9.61077124E-14
   95.0322342         9.98012708E-14
   95.1590271         1.01083950E-13
   95.2858200         9.99650802E-14
   95.4126129         9.65314729E-14
   95.5394058         9.09426072E-14
   95.6661987         8.34225606E-14
   95.7929916         7.42492209E-14
   95.9197769         6.37409369E-14
   96.0465698         5.22412822E-14
   96.1733627         4.01026800E-14
   96.3001556         2.76693341E-14
   96.4269485         1.52607165E-14
   96.5537415         3.15592575E-15
   96.6805344        -8.41968876E-15
   96.8073273        -1.93053733E-14
   96.9341202        -2.94122196E-14
   97.0609131        -3.87264378E-14
   97.1877060        -4.73081860E-14
   97.3144989        -5.52857625E-14
   97.4412918        -6.28451081E-14
   97.5680847        -7.02149181E-14
   97.6948776        -7.76478355E-14
   97.8216705        -8.53983835E-14
   97.9484634        -9.36985610E-14
   98.0752563        -1.02732452E-13