  -4.50000000         0.00000000    
  -4.37320757         0.00000000    
  -4.24641466         0.00000000    
  -4.11962223         0.00000000    
  -3.99282932         0.00000000    
  -3.86603665         0.00000000    
  -3.73924398         0.00000000    
  -3.61245155         0.00000000    
  -3.48565888         0.00000000    
  -3.35886621         0.00000000    
  -3.23207355         0.00000000    
  -3.10528088         0.00000000    
  -2.97848821         0.00000000    
  -2.85169554         0.00000000    
  -2.72490287         0.00000000    
  -2.59811020         0.00000000    
  -2.47131753         0.00000000    
  -2.34452486         0.00000000    
  -2.21773219         0.00000000    
  -2.09093952         0.00000000    
  -1.96414697         0.00000000    
  -1.83735430         0.00000000    
  -1.71056163         0.00000000    
  -1.58376896         0.00000000    
  -1.45697629         0.00000000    
  -1.33018374         0.00000000    
  -1.20339108         0.00000000    
  -1.07659841         0.00000000    
 -0.949805737         0.00000000    
 -0.823013067         0.00000000    
 -0.696220458         0.00000000    
 -0.569427788         0.00000000    
 -0.442635119         0.00000000    
 -0.315842479         0.00000000    
 -0.189049825         0.00000000    
  -6.22571707E-02     0.00000000    
   6.45354837E-02     0.00000000    
  0.191328138         0.00000000    
  0.318120778         0.00000000    
  0.444913447         0.00000000    
  0.571706116         0.00000000    
  0.698498726         0.00000000    
  0.825291395         0.00000000    
  0.952084064         0.00000000    
   1.07887673         0.00000000    
   1.20566940         0.00000000    
   1.33246195         0.00000000    
   1.45925462         0.00000000    
   1.58604729         0.00000000    
   1.71283996         0.00000000    
   1.83963263         0.00000000    
   1.96642530         0.00000000    
   2.09321785         0.00000000    
   2.22001052         0.00000000    
   2.34680319         0.00000000    
   2.47359586         0.00000000    
   2.60038853         0.00000000    
   2.72718120         0.00000000    
   2.85397387         0.00000000    
   2.98076653         0.00000000    
   3.10755920         0.00000000    
   3.23435187         0.00000000    
   3.36114454         0.00000000    
   3.48793697         0.00000000    
   3.61472964         0.00000000    
   3.74152231         0.00000000    
   3.86831498         0.00000000    
   3.99510765         0.00000000    
   4.12190056         0.00000000    
   4.24869299         0.00000000    
   4.37548542         0.00000000    
   4.50227833         0.00000000    
   4.62907076         0.00000000    
   4.75586367         0.00000000    
   4.88265610         0.00000000    
   5.00944901         0.00000000    
   5.13624144         0.00000000    
   5.26303434         0.00000000    
   5.38982677         0.00000000    
   5.51661968         0.00000000    
   5.64341211         0.00000000    
   5.77020502         0.00000000    
   5.89699745         0.00000000    
   6.02379036         0.00000000    
   6.15058279         0.00000000    
   6.27737522         0.00000000    
   6.40416813         0.00000000    
   6.53096056         0.00000000    
   6.65775347         0.00000000    
   6.78454590         0.00000000    
   6.91133881         0.00000000    
   7.03813124         0.00000000    
   7.16492414         0.00000000    
   7.29171658         0.00000000    
   7.41850948         0.00000000    
   7.54530191         0.00000000    
   7.67209482         0.00000000    
   7.79888725         0.00000000    
   7.92567968         0.00000000    
   8.05247211         0.00000000    
   8.17926502         0.00000000    
   8.30605793         0.00000000    
   8.43285084         0.00000000    
   8.55964279         0.00000000    
   8.68643570         0.00000000    
   8.81322861         0.00000000    
   8.94002151         0.00000000    
   9.06681347         0.00000000    
   9.19360638         0.00000000    
   9.32039928         0.00000000    
   9.44719219         0.00000000    
   9.57398415         0.00000000    
   9.70077705         0.00000000    
   9.82756996         0.00000000    
   9.95436192         0.00000000    
   10.0811548         0.00000000    
   10.2079477         0.00000000    
   10.3347406         0.00000000    
   10.4615326         0.00000000    
   10.5883255         0.00000000    
   10.7151184         0.00000000    
   10.8419113         0.00000000    
   10.9687033         0.00000000    
   11.0954962         0.00000000    
   11.2222891         0.00000000    
   11.3490820         0.00000000    
   11.4758739         0.00000000    
   11.6026669         0.00000000    
   11.7294598         0.00000000    
   11.8562517         0.00000000    
   11.9830446         0.00000000    
   12.1098375         0.00000000    
   12.2366304         0.00000000    
   12.3634224         0.00000000    
   12.4902153         0.00000000    
   12.6170082         0.00000000    
   12.7438011         0.00000000    
   12.8705931         0.00000000    
   12.9973860         0.00000000    
   13.1241789         0.00000000    
   13.2509708         0.00000000    
   13.3777637         0.00000000    
   13.5045567         0.00000000    
   13.6313496         0.00000000    
   13.7581415         0.00000000    
   13.8849344         0.00000000    
   14.0117273         0.00000000    
   14.1385202         0.00000000    
   14.2653122         0.00000000    
   14.3921051         0.00000000    
   14.5188980         0.00000000    
   14.6456909         0.00000000    
   14.7724829         0.00000000    
   14.8992758         0.00000000    
   15.0260687         0.00000000    
   15.1528606         0.00000000    
   15.2796535         0.00000000    
   15.4064465         0.00000000    
   15.5332394         0.00000000    
   15.6600313         0.00000000    
   15.7868242         0.00000000    
   15.9136171         0.00000000    
   16.0404091         0.00000000    
   16.1672020         0.00000000    
   16.2939949         0.00000000    
   16.4207878         0.00000000    
   16.5475807         0.00000000    
   16.6743736         0.00000000    
   16.8011646         0.00000000    
   16.9279575         0.00000000    
   17.0547504         0.00000000    
   17.1815434         0.00000000    
   17.3083363         0.00000000    
   17.4351292         0.00000000    
   17.5619221         0.00000000    
   17.6887150         0.00000000    
   17.8155060         0.00000000    
   17.9422989         0.00000000    
   18.0690918         0.00000000    
   18.1958847         0.00000000    
   18.3226776         0.00000000    
   18.4494705         0.00000000    
   18.5762634         0.00000000    
   18.7030544         0.00000000    
   18.8298473         0.00000000    
   18.9566402         0.00000000    
   19.0834332         0.00000000    
   19.2102261         0.00000000    
   19.3370190         0.00000000    
   19.4638119         0.00000000    
   19.5906048         0.00000000    
   19.7173958         0.00000000    
   19.8441887         0.00000000    
   19.9709816         0.00000000    
   20.0977745         0.00000000    
   20.2245674         0.00000000    
   20.3513603         0.00000000    
   20.4781532         0.00000000    
   20.6049442         0.00000000    
   20.7317371         0.00000000    
   20.8585300         0.00000000    
   20.9853230         0.00000000    
   21.1121159         0.00000000    
   21.2389088         0.00000000    
   21.3657017         0.00000000    
   21.4924946         0.00000000    
   21.6192856         0.00000000    
   21.7460785         0.00000000    
   21.8728714         0.00000000    
   21.9996643         0.00000000    
   22.1264572         0.00000000    
   22.2532501         0.00000000    
   22.3800430         0.00000000    
   22.5068340         0.00000000    
   22.6336269         0.00000000    
   22.7604198         0.00000000    
   22.8872128         0.00000000    
   23.0140057         0.00000000    
   23.1407986         0.00000000    
   23.2675915         0.00000000    
   23.3943844         0.00000000    
   23.5211754         0.00000000    
   23.6479683         0.00000000    
   23.7747612         0.00000000    
   23.9015541         0.00000000    
   24.0283470         0.00000000    
   24.1551399         0.00000000    
   24.2819328         0.00000000    
   24.4087238         0.00000000    
   24.5355167         0.00000000    
   24.6623096         0.00000000    
   24.7891026         0.00000000    
   24.9158955         0.00000000    
   25.0426884         0.00000000    
   25.1694813         0.00000000    
   25.2962742         0.00000000    
   25.4230652         0.00000000    
   25.5498581         0.00000000    
   25.6766510         0.00000000    
   25.8034439         0.00000000    
   25.9302368         0.00000000    
   26.0570297         0.00000000    
   26.1838226         0.00000000    
   26.3106136         0.00000000    
   26.4374065         0.00000000    
   26.5641994         0.00000000    
   26.6909924         0.00000000    
   26.8177853         0.00000000    
   26.9445782         0.00000000    
   27.0713711         0.00000000    
   27.1981640         0.00000000    
   27.3249550         0.00000000    
   27.4517479         0.00000000    
   27.5785408         0.00000000    
   27.7053337         0.00000000    
   27.8321266         0.00000000    
   27.9589195         0.00000000    
   28.0857124         0.00000000    
   28.2125034         0.00000000    
   28.3392963         0.00000000    
   28.4660892         0.00000000    
   28.5928822         0.00000000    
   28.7196751         0.00000000    
   28.8464680         0.00000000    
   28.9732609         1.85850928E-33
   29.1000538         5.72383428E-33
   29.2268448         9.58912382E-33
   29.3536377         1.34543513E-32
   29.4804306         1.29931299E-32
   29.6072235         8.67576912E-33
   29.7340164        -7.66372799E-33
   29.8608093        -3.19033957E-32
   29.9876022        -5.97970567E-32
   30.1143932        -1.20633615E-31
   30.2411861        -2.13469821E-31
   30.3679790        -2.92232315E-31
   30.4947720        -3.70724493E-31
   30.6215649        -4.29565838E-31
   30.7483578        -4.61836402E-31
   30.8751507        -4.49231247E-31
   31.0019417        -3.68497754E-31
   31.1287346        -2.40816522E-31
   31.2555275        -1.71323556E-32
   31.3823204         2.60884843E-31
   31.5091133         5.17647933E-31
   31.6359062         7.30518111E-31
   31.7626991         9.20445931E-31
   31.8894920         1.05878281E-30
   32.0162849         1.08602023E-30
   32.1430779         1.06069096E-30
   32.2698708         7.54219040E-31
   32.3966637         2.13254729E-31
   32.5234528        -2.78309878E-31
   32.6502457        -6.46926075E-31
   32.7770386        -1.01390337E-30
   32.9038315        -2.81582073E-30
   33.0306244        -2.20447715E-30
   33.1574173        -1.60056545E-31
   33.2842102         1.46317694E-30
   33.4110031         1.39052415E-30
   33.5377960         3.44801645E-31
   33.6645889         2.80678034E-30
   33.7913818         5.18291596E-30
   33.9181747         4.12494735E-30
   34.0449677        -6.11379032E-31
   34.1717606        -7.30818944E-30
   34.2985535        -1.40842670E-29
   34.4253426        -1.70639394E-29
   34.5521355        -1.92499226E-29
   34.6789284        -2.13153169E-29
   34.8057213        -9.48851291E-30
   34.9325142         1.43890544E-29
   35.0593071         5.32727811E-29
   35.1861000         1.06733413E-28
   35.3128929         1.70556215E-28
   35.4396858         2.33138273E-28
   35.5664787         2.96179040E-28
   35.6932716         3.49476335E-28
   35.8200645         3.88159456E-28
   35.9468575         4.01689283E-28
   36.0736504         3.86183091E-28
   36.2004433         3.37050837E-28
   36.3272324         2.58296311E-28
   36.4540253         1.56929791E-28
   36.5808182         3.23932750E-29
   36.7076111        -1.04914023E-28
   36.8344040        -2.47641056E-28
   36.9611969        -3.98185751E-28
   37.0879898        -5.56564528E-28
   37.2147827        -7.19426316E-28
   37.3415756        -8.83001902E-28
   37.4683685        -1.03730722E-27
   37.5951614        -1.17547940E-27
   37.7219543        -1.28201607E-27
   37.8487473        -1.33715929E-27
   37.9755402        -1.32156947E-27
   38.1023293        -1.22091315E-27
   38.2291222        -1.02009749E-27
   38.3559151        -7.07600384E-28
   38.4827080        -2.75393441E-28
   38.6095009         2.76076111E-28
   38.7362938         9.39370308E-28
   38.8630867         1.69652858E-27
   38.9898796         2.52263100E-27
   39.1166725         3.38386199E-27
   39.2434654         4.23828425E-27
   39.3702583         5.03402265E-27
   39.4970512         5.71109989E-27
   39.6238441         6.20554234E-27
   39.7506371         6.44652201E-27
   39.8774300         6.36397280E-27
   40.0042191         5.89006577E-27
   40.1310120         4.96587555E-27
   40.2578049         3.54649253E-27
   40.3845978         1.60585926E-27
   40.5113907        -8.55262059E-28
   40.6381836        -3.80517419E-27
   40.7649765        -7.17482090E-27
   40.8917694        -1.08579716E-26
   41.0185623        -1.47099371E-26
   41.1453552        -1.85472554E-26
   41.2721481        -2.21524607E-26
   41.3989410        -2.52789969E-26
   41.5257339        -2.76563047E-26
   41.6525269        -2.90009181E-26
   41.7793198        -2.90270091E-26
   41.9061089        -2.74619768E-26
   42.0329018        -2.40649569E-26
   42.1596947        -1.86497272E-26
   42.2864876        -1.11087277E-26
   42.4132805        -1.43805106E-27
   42.5400734         1.02384323E-26
   42.6668663         2.36483844E-26
   42.7936592         3.83573908E-26
   42.9204521         5.37606981E-26
   43.0472450         6.90876246E-26
   43.1740379         8.34159394E-26
   43.3008308         9.57005251E-26
   43.4276237         1.04815727E-25
   43.5544167         1.09611705E-25
   43.6812096         1.08985941E-25
   43.8079987         1.01965135E-25
   43.9347916         8.77981295E-26
   44.0615845         6.60493761E-26
   44.1883774         3.66964565E-26
   44.3151703         2.11655199E-28
   44.4419632        -4.23675992E-26
   44.5687561        -8.93973539E-26
   44.6955490        -1.38614583E-25
   44.8223419        -1.87165804E-25
   44.9491348        -2.31687191E-25
   45.0759277        -2.68436054E-25
   45.2027206        -2.93475263E-25
   45.3295135        -3.02924905E-25
   45.4563065        -2.93257439E-25
   45.5830994        -2.61642630E-25
   45.7098885        -2.06317781E-25
   45.8366814        -1.26965314E-25
   45.9634743        -2.50697161E-26
   46.0902672         9.57759969E-26
   46.2170601         2.29664231E-25
   46.3438530         3.68283880E-25
   46.4706459         5.01007927E-25
   46.5974388         6.15174885E-25
   46.7242317         6.96592135E-25
   46.8510246         7.30309775E-25
   46.9778175         7.01614072E-25
   47.1046104         5.97284062E-25
   47.2314034         4.07018232E-25
   47.3581963         1.25039014E-25
   47.4849892        -2.48285884E-25
   47.6117783        -7.04852839E-25
   47.7385712        -1.22743079E-24
   47.8653641        -1.78861766E-24
   47.9921570        -2.35031640E-24
   48.1189499        -2.86387156E-24
   48.2457428        -3.27107978E-24
   48.3725357        -3.50613647E-24
   48.4993286        -3.49874011E-24
   48.6261215        -3.17825866E-24
   48.7529144        -2.47905870E-24
   48.8797073        -1.34682942E-24
   49.0065002         2.54282213E-25
   49.1332932         2.33402781E-24
   49.2600861         4.86846454E-24
   49.3868790         7.79270092E-24
   49.5136681         1.09948909E-23
   49.6404610         1.43119547E-23
   49.7672539         1.75280412E-23
   49.8940468         2.03761462E-23
   50.0208397         2.25440464E-23
   50.1476326         2.36847488E-23
   50.2744255         2.34317690E-23
   50.4012184         2.14202699E-23
   50.5280113         1.73126002E-23
   50.6548042         1.08288341E-23
   50.7815971         1.78044348E-24
   50.9083900        -9.89366391E-24
   51.0351830        -2.40908985E-23
   51.1619759        -4.05114027E-23
   51.2887688        -5.86291585E-23
   51.4155579        -7.76715792E-23
   51.5423508        -9.66104635E-23
   51.6691437        -1.14167964E-22
   51.7959366        -1.28839704E-22
   51.9227295        -1.38940090E-22
   52.0495224        -1.42667060E-22
   52.1763153        -1.38193436E-22
   52.3031082        -1.23777186E-22
   52.4299011        -9.78948805E-23
   52.5566940        -5.93898350E-23
   52.6834869        -7.63130866E-24
   52.8102798         5.73233665E-23
   52.9370728         1.34573877E-22
   53.0638657         2.22240797E-22
   53.1906586         3.17359903E-22
   53.3174477         4.15821331E-22
   53.4442406         5.12366597E-22
   53.5710335         6.00657424E-22
   53.6978264         6.73424428E-22
   53.8246193         7.22708317E-22
   53.9514122         7.40194221E-22
   54.0782051         7.17641684E-22
   54.2049980         6.47397773E-22
   54.3317909         5.22991506E-22
   54.4585838         3.39776730E-22
   54.5853767         9.56029871E-23
   54.7121696        -2.08523541E-22
   54.8389626        -5.67832833E-22
   54.9657555        -9.73276743E-22
   55.0925484        -1.41117093E-21
   55.2193375        -1.86303571E-21
   55.3461304        -2.30568902E-21
   55.4729233        -2.71163679E-21
   55.5997162        -3.04979594E-21
   55.7265091        -3.28657538E-21
   55.8533020        -3.38731895E-21
   55.9800949        -3.31810215E-21
   56.1068878        -3.04783562E-21
   56.2336807        -2.55062818E-21
   56.3604736        -1.80830245E-21
   56.4872665        -8.12961224E-22
   56.6140594         4.30530848E-22
   56.7408524         1.90234194E-21
   56.8676453         3.56587505E-21
   56.9944382         5.36660726E-21
   57.1212273         7.23170648E-21
   57.2480202         9.07064369E-21
   57.3748131         1.07768951E-20
   57.5016060         1.22308904E-20
   57.6283989         1.33042284E-20
   57.7551918         1.38651901E-20
   57.8819847         1.37854270E-20
   58.0087776         1.29477281E-20
   58.1355705         1.12545306E-20
   58.2623634         8.63694578E-21
   58.3891563         5.06374445E-21
   58.5159492         5.49948435E-22
   58.6427422        -4.83565989E-21
   58.7695351        -1.09645989E-20
   58.8963280        -1.76450630E-20
   59.0231171        -2.46210439E-20
   59.1499100        -3.15749025E-20
   59.2767029        -3.81336725E-20
   59.4034958        -4.38795695E-20
   59.5302887        -4.83646397E-20
   59.6570816        -5.11296363E-20
   59.7838745        -5.17267153E-20
   59.9106674        -4.97453593E-20
   60.0374603        -4.48406564E-20
   60.1642532        -3.67627143E-20
   60.2910461        -2.53862005E-20
   60.4178391        -1.07376170E-20
   60.5446320         6.98054892E-21
   60.6714249         2.73714549E-20
   60.7982178         4.98326010E-20
   60.9250069         7.35538436E-20
   61.0517998         9.75259642E-20
   61.1785927         1.20561187E-19
   61.3053856         1.41326496E-19
   61.4321785         1.58389746E-19
   61.5589714         1.70278373E-19
   61.6857643         1.75549672E-19
   61.8125572         1.72870253E-19
   61.9393501         1.61102187E-19
   62.0661430         1.39392638E-19
   62.1929359         1.07261951E-19
   62.3197289         6.46861443E-20
   62.4465218         1.21684835E-20
   62.5733147        -4.92060795E-20
   62.7001076        -1.17737412E-19
   62.8268967        -1.91104364E-19
   62.9536896        -2.66389510E-19
   63.0804825        -3.40138477E-19
   63.2072754        -4.08455841E-19
   63.3340683        -4.67137326E-19
   63.4608612        -5.11837546E-19
   63.5876541        -5.38269327E-19
   63.7144470        -5.42428029E-19
   63.8412399        -5.20835669E-19
   63.9680328        -4.70790569E-19
   64.0948257        -3.90615236E-19
   64.2216187        -2.79885246E-19
   64.3484116        -1.39629806E-19
   64.4752045         2.75174459E-20
   64.6019974         2.17224195E-19
   64.7287903         4.23439442E-19
   64.8555832         6.38457443E-19
   64.9823761         8.53073692E-19
   65.1091690         1.05683728E-18
   65.2359619         1.23839939E-18
   65.3627548         1.38595621E-18
   65.4895477         1.48776953E-18
   65.6163330         1.53275885E-18
   65.7431259         1.51113335E-18
   65.8699188         1.41504629E-18
   65.9967117         1.23923702E-18
   66.1235046         9.81628675E-19
   66.2502975         6.43840528E-19
   66.3770905         2.31588755E-19
   66.5038834        -2.45069240E-19
   66.6306763        -7.71674002E-19
   66.7574692        -1.32951406E-18
   66.8842621        -1.89600364E-18
   67.0110550        -2.44530099E-18
   67.1378479        -2.94916565E-18
   67.2646408        -3.37803522E-18
   67.3914337        -3.70230946E-18
   67.5182266        -3.89378233E-18
   67.6450195        -3.92718637E-18
   67.7718124        -3.78178043E-18
   67.8986053        -3.44290066E-18
   68.0253983        -2.90339733E-18
   68.1521912        -2.16488821E-18
   68.2789841        -1.23870803E-18
   68.4057770        -1.46505823E-19
   68.5325699         1.07959395E-18
   68.6593628         2.39733010E-18
   68.7861557         3.75517747E-18
   68.9129486         5.09377780E-18
   69.0397415         6.34790686E-18
   69.1665344         7.44897731E-18
   69.2933273         8.32795763E-18
   69.4201126         8.91867874E-18
   69.5469055         9.16135037E-18
   69.6736984         9.00616136E-18
   69.8004913         8.41679848E-18
   69.9272842         7.37370553E-18
   70.0540771         5.87685769E-18
   70.1808701         3.94790972E-18
   70.3076630         1.63150736E-18
   70.4344559        -1.00436942E-18
   70.5612488        -3.86918322E-18
   70.6880417        -6.85179344E-18
   70.8148346        -9.82362260E-18
   70.9416275        -1.26430239E-17
   71.0684204        -1.51607482E-17
   71.1952133        -1.72263704E-17
   71.3220062        -1.86954316E-17
   71.4487991        -1.94370967E-17
   71.5755920        -1.93418931E-17
   71.7023849        -1.83292503E-17
   71.8291779        -1.63544112E-17
   71.9559708        -1.34143094E-17
   72.0827637        -9.55202777E-18
   72.2095566        -4.85946772E-18
   72.3363495         5.22128862E-19
   72.4631424         6.40395331E-18
   72.5899353         1.25539564E-17
   72.7167282         1.87036935E-17
   72.8435211         2.45576987E-17
   72.9703140         2.98050645E-17
   73.0971069         3.41330190E-17
   73.2238922         3.72419377E-17
   73.3506851         3.88611900E-17
   73.4774780         3.87653132E-17
   73.6042709         3.67894202E-17
   73.7310638         3.28433783E-17
   73.8578568         2.69236304E-17
   73.9846497         1.91220831E-17
   74.1114426         9.63122618E-18
   74.2382355        -1.25525795E-18
   74.3650284        -1.31465659E-17
   74.4918213        -2.55640847E-17
   74.6186142        -3.79558408E-17
   74.7454071        -4.97160000E-17
   74.8722000        -6.02088621E-17
   74.9989929        -6.87965851E-17
   75.1257858        -7.48699635E-17
   75.2525787        -7.78807090E-17
   75.3793716        -7.73738392E-17
   75.5061646        -7.30190377E-17
   75.6329575        -6.46388047E-17
   75.7597504        -5.22321246E-17
   75.8865433        -3.59920413E-17
   76.0133362        -1.63153468E-17
   76.1401291         6.19623502E-18
   76.2669220         3.07446589E-17
   76.3937149         5.63545446E-17
   76.5205078         8.19022163E-17
   76.6473007         1.06154622E-16
   76.7740936         1.27817338E-16
   76.9008865         1.45589929E-16
   77.0276718         1.58226721E-16
   77.1544647         1.64601226E-16
   77.2812576         1.63770445E-16
   77.4080505         1.55036967E-16
   77.5348434         1.38005490E-16
   77.6616364         1.12629759E-16
   77.7884293         7.92484422E-17
   77.9152222         3.86060213E-17
   78.0420151        -8.14356335E-18
   78.1688080        -5.94515353E-17
   78.2956009        -1.13408633E-16
   78.4223938        -1.67799516E-16
   78.5491867        -2.20175547E-16
   78.6759796        -2.67945797E-16
   78.8027725        -3.08481829E-16
   78.9295654        -3.39234313E-16
   79.0563583        -3.57855432E-16
   79.1831512        -3.62324114E-16
   79.3099442        -3.51066199E-16
   79.4367371        -3.23065169E-16
   79.5635300        -2.77957832E-16
   79.6903229        -2.16107791E-16
   79.8171158        -1.38653152E-16
   79.9439087        -4.75229092E-17
   80.0707016         5.45802984E-17
   80.1974945         1.64233587E-16
   80.3242874         2.77383623E-16
   80.4510803         3.89472578E-16
   80.5778732         4.95595430E-16
   80.7046585         5.90686631E-16
   80.8314514         6.69728146E-16
   80.9582443         7.27971402E-16
   81.0850372         7.61166306E-16
   81.2118301         7.65784276E-16
   81.3386230         7.39228205E-16
   81.4654160         6.80017055E-16
   81.5922089         5.87935098E-16
   81.7190018         4.64138215E-16
   81.8457947         3.11206602E-16
   81.9725876         1.33141271E-16
   82.0993805        -6.47038013E-17
   82.2261734        -2.75751761E-16
   82.3529663        -4.92395287E-16
   82.4797592        -7.06247813E-16
   82.6065521        -9.08446330E-16
   82.7333450        -1.08999418E-15
   82.8601379        -1.24213454E-15
   82.9869308        -1.35673799E-15
   83.1137238        -1.42668629E-15
   83.2405167        -1.44624375E-15
   83.3673096        -1.41138411E-15
   83.4941025        -1.32007237E-15
   83.6208954        -1.17247095E-15
   83.7476883        -9.71070440E-16
   83.8744812        -7.20720324E-16
   84.0012741        -4.28563546E-16
   84.1280670        -1.03865820E-16
   84.2548599         2.42259523E-16
   84.3816528         5.97220855E-16
   84.5084381         9.47408893E-16
   84.6352310         1.27872308E-15
   84.7620239         1.57715428E-15
   84.8888168         1.82939487E-15
   85.0156097         2.02345520E-15
   85.1424026         2.14924954E-15
   85.2691956         2.19913766E-15
   85.3959885         2.16838211E-15
   85.5227814         2.05550099E-15
   85.6495743         1.86249247E-15
   85.7763672         1.59491222E-15
   85.9031601         1.26179650E-15
   86.0299530         8.75414216E-16
   86.1567459         4.50854462E-16
   86.2835388         5.47099408E-18
   86.4103317        -4.41829882E-16
   86.5371246        -8.71402032E-16
   86.6639175        -1.26376437E-15
   86.7907104        -1.60054361E-15
   86.9175034        -1.86543485E-15
   87.0442963        -2.04510409E-15
   87.1710892        -2.13002168E-15
   87.2978821        -2.11515392E-15
   87.4246750        -2.00047625E-15
   87.5514679        -1.79128728E-15
   87.6782608        -1.49826682E-15
   87.8050537        -1.13727154E-15
   87.9318466        -7.28860046E-16
   88.0586395        -2.97540254E-16
   88.1854324         1.29238765E-16
   88.3122177         5.22335572E-16
   88.4390106         8.52347391E-16
   88.5658035         1.09118607E-15
   88.6925964         1.21371139E-15
   88.8193893         1.19939368E-15
   88.9461823         1.03386375E-15
   89.0729752         7.10335594E-16
   89.1997681         2.30755862E-16
   89.3265610        -3.93354477E-16
   89.4533539        -1.14044421E-15
   89.5801468        -1.97894658E-15
   89.7069397        -2.86778081E-15
   89.8337326        -3.75735557E-15
   89.9605255        -4.59113203E-15
   90.0873184        -5.30766303E-15
   90.2141113        -5.84310220E-15
   90.3409042        -6.13411054E-15
   90.4676971        -6.12104548E-15
   90.5944901        -5.75134778E-15
   90.7212830        -4.98298006E-15
   90.8480759        -3.78773610E-15
   90.9748688        -2.15433386E-15
   91.1016617        -9.10490141E-17
   91.2284546         2.37221678E-15
   91.3552475         5.18261895E-15
   91.4820404         8.26389653E-15
   91.6088333         1.15169003E-14
   91.7356262         1.48211962E-14
   91.8624191         1.80377157E-14
   91.9892120         2.10125615E-14
   92.1159973         2.35818496E-14
   92.2427902         2.55775032E-14
   92.3695831         2.68338699E-14
   92.4963760         2.71949686E-14
   92.6231689         2.65221161E-14
   92.7499619         2.47016661E-14
   92.8767548         2.16525660E-14
   93.0035477         1.73334061E-14
   93.1303406         1.17485808E-14
   93.2571335         4.95328943E-15
   93.3839264        -2.94297553E-15
   93.5107193        -1.17747329E-14
   93.6375122        -2.13208865E-14
   93.7643051        -3.13072457E-14
   93.8910980        -4.14114713E-14
   94.0178909        -5.12703588E-14
   94.1446838        -6.04893875E-14
   94.2714767        -6.86545276E-14
   94.3982697        -7.53459117E-14
   94.5250626        -8.01529863E-14
   94.6518555        -8.26910223E-14
   94.7786484        -8.26179403E-14
   94.9054413        -7.96514005E-14
   95.0322342        -7.35851335E-14
   95.1590271        -6.43040173E-14
   95.2858200        -5.17970778E-14
   95.4126129        -3.61680189E-14
   95.5394058        -1.76423495E-14
   95.6661987         3.42937488E-15
   95.7929916         2.65724688E-14
   95.9197769         5.11937023E-14
   96.0465698         7.65917549E-14
   96.1733627         1.01972433E-13
   96.3001556         1.26468592E-13
   96.4269485         1.49164467E-13
   96.5537415         1.69123586E-13
   96.6805344         1.85420147E-13
   96.8073273         1.97172275E-13
   96.9341202         2.03576630E-13
   97.0609131         2.03943037E-13
   97.1877060         1.97727793E-13
   97.3144989         1.84564522E-13
   97.4412918         1.64291269E-13
   97.5680847         1.36972424E-13
   97.6948776         1.02914340E-13
   97.8216705         6.26737296E-14
   97.9484634         1.70580594E-14
   98.0752563        -3.28830591E-14