  -4.50000000         0.00000000    
  -4.37320757         0.00000000    
  -4.24641466         0.00000000    
  -4.11962223         0.00000000    
  -3.99282932        -2.71012424E-25
  -3.86603665         4.42091485E-22
  -3.73924398         2.59980383E-21
  -3.61245155         5.59210041E-21
  -3.48565888        -1.85247704E-21
  -3.35886621        -4.32850205E-20
  -3.23207355        -1.18877034E-19
  -3.10528088        -1.02767465E-19
  -2.97848821         4.02222777E-19
  -2.85169554         2.12551420E-18
  -2.72490287         5.88766894E-18
  -2.59811020         1.18625814E-17
  -2.47131753         1.83746080E-17
  -2.34452486         2.07045706E-17
  -2.21773219         1.09092062E-17
  -2.09093952        -2.00394033E-17
  -1.96414697        -7.68975222E-17
  -1.83735430        -1.52243320E-16
  -1.71056163        -2.19342054E-16
  -1.58376896        -2.31767828E-16
  -1.45697629        -1.36270502E-16
  -1.33018374         9.86103581E-17
  -1.20339108         4.44755560E-16
  -1.07659841         7.85282816E-16
 -0.949805737         9.18504211E-16
 -0.823013067         6.14430871E-16
 -0.696220458        -2.77064715E-16
 -0.569427788        -1.69756372E-15
 -0.442635119        -3.28844596E-15
 -0.315842479        -4.39972164E-15
 -0.189049825        -4.23813613E-15
  -6.22571707E-02    -2.14228693E-15
   6.45354837E-02     2.08592218E-15
  0.191328138         7.90426074E-15
  0.318120778         1.39208908E-14
  0.444913447         1.80281103E-14
  0.571706116         1.77899992E-14
  0.698498726         1.10265944E-14
  0.825291395        -3.51654812E-15
  0.952084064        -2.55563579E-14
   1.07887673        -5.28730468E-14
   1.20566940        -8.12723776E-14
   1.33246195        -1.05027071E-13
   1.45925462        -1.17843574E-13
   1.58604729        -1.14281617E-13
   1.71283996        -9.14005267E-14
   1.83963263        -5.02605566E-14
   1.96642530         3.16691706E-15
   2.09321785         5.80754046E-14
   2.22001052         1.00089343E-13
   2.34680319         1.13635941E-13
   2.47359586         8.50469123E-14
   2.60038853         5.82348153E-15
   2.72718120        -1.24527355E-13
   2.85397387        -2.96541464E-13
   2.98076653        -4.89983217E-13
   3.10755920        -6.74258555E-13
   3.23435187        -8.10122911E-13
   3.36114454        -8.52851318E-13
   3.48793697        -7.57157032E-13
   3.61472964        -4.84088789E-13
   3.74152231        -9.78176517E-15
   3.86831498         6.64749560E-13
   3.99510765         1.50441953E-12
   4.12190056         2.43379015E-12
   4.24869299         3.33613779E-12
   4.37548542         4.05969919E-12
   4.50227833         4.43157100E-12
   4.62907076         4.27801501E-12
   4.75586367         3.44824928E-12
   4.88265610         1.83780964E-12
   5.00944901        -5.92613632E-13
   5.13624144        -3.80608088E-12
   5.26303434        -7.68797005E-12
   5.38982677        -1.20545475E-11
   5.51661968        -1.66706822E-11
   5.64341211        -2.12750356E-11
   5.77020502        -2.56105172E-11
   5.89699745        -2.94571971E-11
   6.02379036        -3.26640624E-11
   6.15058279        -3.51750261E-11
   6.27737522        -3.70436390E-11
   6.40416813        -3.84313519E-11
   6.53096056        -3.95864730E-11
   6.65775347        -4.08043911E-11
   6.78454590        -4.23759604E-11
   6.91133881        -4.45357154E-11
   7.03813124        -4.74257716E-11
   7.16492414        -5.10907983E-11
   7.29171658        -5.55161646E-11
   7.41850948        -6.07124975E-11
   7.54530191        -6.68422609E-11
   7.67209482        -7.43758943E-11
   7.79888725        -8.42636447E-11
   7.92567968        -9.81136006E-11
   8.05247211        -1.18376170E-10
   8.17926502        -1.48549187E-10
   8.30605793        -1.93428121E-10
   8.43285084        -2.59426258E-10
   8.55964279        -3.54981600E-10
   8.68643570        -4.91034324E-10
   8.81322861        -6.81520507E-10
   8.94002151        -9.43770506E-10
   9.06681347        -1.29864453E-09
   9.19360638        -1.77019377E-09
   9.32039928        -2.38459519E-09
   9.44719219        -3.16811999E-09
   9.57398415        -4.14392298E-09
   9.70077705        -5.32752331E-09
   9.82756996        -6.72096512E-09
   9.95436192        -8.30580404E-09
   10.0811548        -1.00352544E-08
   10.2079477        -1.18260139E-08
   10.3347406        -1.35504852E-08
   10.4615326        -1.50302437E-08
   10.5883255        -1.60317608E-08
   10.7151184        -1.62653535E-08
   10.8419113        -1.53884070E-08
   10.9687033        -1.30136515E-08
   11.0954962        -8.72319816E-09
   11.2222891        -2.08855577E-09
   11.3490820         7.30335481E-09
   11.4758739         1.98189412E-08
   11.6026669         3.57426018E-08
   11.7294598         5.52391910E-08
   11.8562517         7.83170435E-08
   11.9830446         1.04794907E-07
   12.1098375         1.34277016E-07
   12.2366304         1.66141191E-07
   12.3634224         1.99545241E-07
   12.4902153         2.33457371E-07
   12.6170082         2.66716086E-07
   12.7438011         2.98124917E-07
   12.8705931         3.26585877E-07
   12.9973860         3.51275247E-07
   13.1241789         3.71861773E-07
   13.2509708         3.88767120E-07
   13.3777637         4.03464782E-07
   13.5045567         4.18810572E-07
   13.6313496         4.39396104E-07
   13.7581415         4.71912898E-07
   13.8849344         5.25512348E-07
   14.0117273         6.12146323E-07
   14.1385202         7.46867556E-07
   14.2653122         9.48074558E-07
   14.3921051         1.23767813E-06
   14.5188980         1.64117455E-06
   14.6456909         2.18760897E-06
   14.7724829         2.90941580E-06
   14.8992758         3.84212626E-06
   15.0260687         5.02393959E-06
   15.1528606         6.49515869E-06
   15.2796535         8.29749843E-06
   15.4064465         1.04732608E-05
   15.5332394         1.30644439E-05
   15.6600313         1.61117114E-05
   15.7868242         1.96533783E-05
   15.9136171         2.37242912E-05
   16.0404091         2.83547724E-05
   16.1672020         3.35695549E-05
   16.2939949         3.93867958E-05
   16.4207878         4.58171162E-05
   16.5475807         5.28628625E-05
   16.6743736         6.05173191E-05
   16.8011646         6.87642460E-05
   16.9279575         7.75774170E-05
   17.0547504         8.69203868E-05
   17.1815434         9.67463784E-05
   17.3083363         1.06998414E-04
   17.4351292         1.17609416E-04
   17.5619221         1.28502783E-04
   17.6887150         1.39592783E-04
   17.8155060         1.50785359E-04
   17.9422989         1.61978896E-04
   18.0690918         1.73065433E-04
   18.1958847         1.83931596E-04
   18.3226776         1.94460154E-04
   18.4494705         2.04531607E-04
   18.5762634         2.14025582E-04
   18.7030544         2.22823001E-04
   18.8298473         2.30808015E-04
   18.9566402         2.37870074E-04
   19.0834332         2.43906135E-04
   19.2102261         2.48823140E-04
   19.3370190         2.52540194E-04
   19.4638119         2.54990911E-04
   19.5906048         2.56125466E-04
   19.7173958         2.55912717E-04
   19.8441887         2.54341809E-04
   19.9709816         2.51423509E-04
   20.0977745         2.47191085E-04
   20.2245674         2.41700633E-04
   20.3513603         2.35030835E-04
   20.4781532         2.27282464E-04
   20.6049442         2.18576388E-04
   20.7317371         2.09051883E-04
   20.8585300         1.98863781E-04
   20.9853230         1.88179169E-04
   21.1121159         1.77173759E-04
   21.2389088         1.66027879E-04
   21.3657017         1.54921872E-04
   21.4924946         1.44031903E-04
   21.6192856         1.33525609E-04
   21.7460785         1.23557737E-04
   21.8728714         1.14266695E-04
   21.9996643         1.05770894E-04
   22.1264572         9.81664416E-05
   22.2532501         9.15249475E-05
   22.3800430         8.58928179E-05
   22.5068340         8.12904691E-05
   22.6336269         7.77134774E-05
   22.7604198         7.51336192E-05
   22.8872128         7.35011708E-05
   23.0140057         7.27475417E-05
   23.1407986         7.27888546E-05
   23.2675915         7.35294016E-05
   23.3943844         7.48657912E-05
   23.5211754         7.66908124E-05
   23.6479683         7.88974212E-05
   23.7747612         8.13825318E-05
   23.9015541         8.40502835E-05
   24.0283470         8.68148272E-05
   24.1551399         8.96024285E-05
   24.2819328         9.23535481E-05
   24.4087238         9.50230678E-05
   24.5355167         9.75809453E-05
   24.6623096         1.00012359E-04
   24.7891026         1.02315964E-04
   24.9158955         1.04502695E-04
   25.0426884         1.06594649E-04
   25.1694813         1.08621840E-04
   25.2962742         1.10620909E-04
   25.4230652         1.12632115E-04
   25.5498581         1.14697134E-04
   25.6766510         1.16856914E-04
   25.8034439         1.19149394E-04
   25.9302368         1.21607780E-04
   26.0570297         1.24259561E-04
   26.1838226         1.27124207E-04
   26.3106136         1.30213375E-04
   26.4374065         1.33530062E-04
   26.5641994         1.37068128E-04
   26.6909924         1.40812976E-04
   26.8177853         1.44741120E-04
   26.9445782         1.48821739E-04
   27.0713711         1.53016648E-04
   27.1981640         1.57281960E-04
   27.3249550         1.61568911E-04
   27.4517479         1.65825011E-04
   27.5785408         1.69995910E-04
   27.7053337         1.74026165E-04
   27.8321266         1.77861133E-04
   27.9589195         1.81448369E-04
   28.0857124         1.84738950E-04
   28.2125034         1.87689424E-04
   28.3392963         1.90262639E-04
   28.4660892         1.92430060E-04
   28.5928822         1.94171662E-04
   28.7196751         1.95478729E-04
   28.8464680         1.96353154E-04
   28.9732609         1.96809488E-04
   29.1000538         1.96874360E-04
   29.2268448         1.96587076E-04
   29.3536377         1.95999542E-04
   29.4804306         1.95174915E-04
   29.6072235         1.94187436E-04
   29.7340164         1.93120446E-04
   29.8608093         1.92065389E-04
   29.9876022         1.91119048E-04
   30.1143932         1.90381630E-04
   30.2411861         1.89954517E-04
   30.3679790         1.89937185E-04
   30.4947720         1.90424878E-04
   30.6215649         1.91505664E-04
   30.7483578         1.93258180E-04
   30.8751507         1.95749337E-04
   31.0019417         1.99032249E-04
   31.1287346         2.03144300E-04
   31.2555275         2.08106474E-04
   31.3823204         2.13922263E-04
   31.5091133         2.20577465E-04
   31.6359062         2.28040240E-04
   31.7626991         2.36262291E-04
   31.8894920         2.45179195E-04
   32.0162849         2.54712824E-04
   32.1430779         2.64772767E-04
   32.2698708         2.75258295E-04
   32.3966637         2.86061724E-04
   32.5234528         2.97070161E-04
   32.6502457         3.08168004E-04
   32.7770386         3.19239945E-04
   32.9038315         3.30172828E-04
   33.0306244         3.40857834E-04
   33.1574173         3.51193157E-04
   33.2842102         3.61084967E-04
   33.4110031         3.70448368E-04
   33.5377960         3.79209843E-04
   33.6645889         3.87306442E-04
   33.7913818         3.94686329E-04
   33.9181747         4.01310041E-04
   34.0449677         4.07148444E-04
   34.1717606         4.12182679E-04
   34.2985535         4.16404073E-04
   34.4253426         4.19812597E-04
   34.5521355         4.22414974E-04
   34.6789284         4.24225378E-04
   34.8057213         4.25262348E-04
   34.9325142         4.25549253E-04
   35.0593071         4.25111532E-04
   35.1861000         4.23977675E-04
   35.3128929         4.22176614E-04
   35.4396858         4.19737597E-04
   35.5664787         4.16690076E-04
   35.6932716         4.13062226E-04
   35.8200645         4.08881111E-04
   35.9468575         4.04172461E-04
   36.0736504         3.98960547E-04
   36.2004433         3.93268332E-04
   36.3272324         3.87117587E-04
   36.4540253         3.80528683E-04
   36.5808182         3.73521325E-04
   36.7076111         3.66113847E-04
   36.8344040         3.58324498E-04
   36.9611969         3.50170681E-04
   37.0879898         3.41669598E-04
   37.2147827         3.32838536E-04
   37.3415756         3.23694694E-04
   37.4683685         3.14256060E-04
   37.5951614         3.04540736E-04
   37.7219543         2.94567697E-04
   37.8487473         2.84356443E-04
   37.9755402         2.73927086E-04
   38.1023293         2.63300753E-04
   38.2291222         2.52499012E-04
   38.3559151         2.41544476E-04
   38.4827080         2.30460690E-04
   38.6095009         2.19272304E-04
   38.7362938         2.08005004E-04
   38.8630867         1.96685796E-04
   38.9898796         1.85342826E-04
   39.1166725         1.74005487E-04
   39.2434654         1.62704528E-04
   39.3702583         1.51472108E-04
   39.4970512         1.40342047E-04
   39.6238441         1.29349763E-04
   39.7506371         1.18533018E-04
   39.8774300         1.07931592E-04
   40.0042191         9.75877556E-05
   40.1310120         8.75464029E-05
   40.2578049         7.78550530E-05
   40.3845978         6.85638079E-05
   40.5113907         5.97254220E-05
   40.6381836         5.13948253E-05
   40.7649765         4.36292103E-05
   40.8917694         3.64872831E-05
   41.0185623         3.00287229E-05
   41.1453552         2.43133527E-05
   41.2721481         1.94001495E-05
   41.3989410         1.53461588E-05
   41.5257339         1.22048932E-05
   41.6525269         1.00249390E-05
   41.7793198         8.84817564E-06
   41.9061089         8.70821077E-06
   42.0329018         9.62859849E-06
   42.1596947         1.16214014E-05
   42.2864876         1.46853217E-05
   42.4132805         1.88048143E-05
   42.5400734         2.39485598E-05
   42.6668663         3.00688680E-05
   42.7936592         3.71009191E-05
   42.9204521         4.49628642E-05
   43.0472450         5.35559848E-05
   43.1740379         6.27655390E-05
   43.3008308         7.24620113E-05
   43.4276237         8.25028983E-05
   43.5544167         9.27350193E-05
   43.6812096         1.02996921E-04
   43.8079987         1.13122151E-04
   43.9347916         1.22942321E-04
   44.0615845         1.32290632E-04
   44.1883774         1.41005454E-04
   44.3151703         1.48933977E-04
   44.4419632         1.55935631E-04
   44.5687561         1.61885677E-04
   44.6955490         1.66678161E-04
   44.8223419         1.70228814E-04
   44.9491348         1.72477230E-04
   45.0759277         1.73388733E-04
   45.2027206         1.72955581E-04
   45.3295135         1.71197389E-04
   45.4563065         1.68160987E-04
   45.5830994         1.63919845E-04
   45.7098885         1.58572337E-04
   45.8366814         1.52240100E-04
   45.9634743         1.45065351E-04
   46.0902672         1.37207840E-04
   46.2170601         1.28841493E-04
   46.3438530         1.20150733E-04
   46.4706459         1.11326299E-04
   46.5974388         1.02561229E-04
   46.7242317         9.40465325E-05
   46.8510246         8.59671782E-05
   46.9778175         7.84980002E-05
   47.1046104         7.18000374E-05
   47.2314034         6.60172809E-05
   47.3581963         6.12735748E-05
   47.4849892         5.76701968E-05
   47.6117783         5.52839083E-05
   47.7385712         5.41654990E-05
   47.8653641         5.43388305E-05
   47.9921570         5.58006250E-05
   48.1189499         5.85207563E-05
   48.2457428         6.24430977E-05
   48.3725357         6.74871699E-05
   48.4993286         7.35498834E-05
   48.6261215         8.05082018E-05
   48.7529144         8.82219683E-05
   48.8797073         9.65371873E-05
   49.0065002         1.05289175E-04
   49.1332932         1.14306509E-04
   49.2600861         1.23414342E-04
   49.3868790         1.32438494E-04
   49.5136681         1.41208671E-04
   49.6404610         1.49562184E-04
   49.7672539         1.57347196E-04
   49.8940468         1.64425801E-04
   50.0208397         1.70676372E-04
   50.1476326         1.75996174E-04
   50.2744255         1.80302828E-04
   50.4012184         1.83535725E-04
   50.5280113         1.85656972E-04
   50.6548042         1.86651494E-04
   50.7815971         1.86527177E-04
   50.9083900         1.85314100E-04
   51.0351830         1.83063545E-04
   51.1619759         1.79846611E-04
   51.2887688         1.75752270E-04
   51.4155579         1.70885338E-04
   51.5423508         1.65363672E-04
   51.6691437         1.59315663E-04
   51.7959366         1.52877197E-04
   51.9227295         1.46188555E-04
   52.0495224         1.39391384E-04
   52.1763153         1.32625530E-04
   52.3031082         1.26026003E-04
   52.4299011         1.19720433E-04
   52.5566940         1.13826012E-04
   52.6834869         1.08447581E-04
   52.8102798         1.03675331E-04
   52.9370728         9.95832888E-05
   53.0638657         9.62280756E-05
   53.1906586         9.36482975E-05
   53.3174477         9.18640872E-05
   53.4442406         9.08774164E-05
   53.5710335         9.06727437E-05
   53.6978264         9.12181495E-05
   53.8246193         9.24666529E-05
   53.9514122         9.43580308E-05
   54.0782051         9.68209279E-05
   54.2049980         9.97748430E-05
   54.3317909         1.03132588E-04
   54.4585838         1.06802479E-04
   54.5853767         1.10690882E-04
   54.7121696         1.14704257E-04
   54.8389626         1.18751399E-04
   54.9657555         1.22745216E-04
   55.0925484         1.26604558E-04
   55.2193375         1.30255154E-04
   55.3461304         1.33631271E-04
   55.4729233         1.36675895E-04
   55.5997162         1.39341661E-04
   55.7265091         1.41590674E-04
   55.8533020         1.43394776E-04
   55.9800949         1.44735066E-04
   56.1068878         1.45601633E-04
   56.2336807         1.45992861E-04
   56.3604736         1.45914732E-04
   56.4872665         1.45380065E-04
   56.6140594         1.44407823E-04
   56.7408524         1.43021942E-04
   56.8676453         1.41250843E-04
   56.9944382         1.39126467E-04
   57.1212273         1.36683680E-04
   57.2480202         1.33959460E-04
   57.3748131         1.30992514E-04
   57.5016060         1.27822655E-04
   57.6283989         1.24490412E-04
   57.7551918         1.21036595E-04
   57.8819847         1.17502022E-04
   58.0087776         1.13927170E-04
   58.1355705         1.10351728E-04
   58.2623634         1.06814485E-04
   58.3891563         1.03352897E-04
   58.5159492         1.00002799E-04
   58.6427422         9.67979140E-05
   58.7695351         9.37695222E-05
   58.8963280         9.09460286E-05
   59.0231171         8.83523317E-05
   59.1499100         8.60092769E-05
   59.2767029         8.39331260E-05
   59.4034958         8.21350550E-05
   59.5302887         8.06205280E-05
   59.6570816         7.93891377E-05
   59.7838745         7.84342701E-05
   59.9106674         7.77430614E-05
   60.0374603         7.72967396E-05
   60.1642532         7.70708066E-05
   60.2910461         7.70358529E-05
   60.4178391         7.71582272E-05
   60.5446320         7.74012587E-05
   60.6714249         7.77263558E-05
   60.7982178         7.80947303E-05
   60.9250069         7.84686636E-05
   61.0517998         7.88133766E-05
   61.1785927         7.90986014E-05
   61.3053856         7.92999999E-05
   61.4321785         7.94005900E-05
   61.5589714         7.93917861E-05
   61.6857643         7.92740175E-05
   61.8125572         7.90571066E-05
   61.9393501         7.87600657E-05
   62.0661430         7.84107106E-05
   62.1929359         7.80446280E-05
   62.3197289         7.77039022E-05
   62.4465218         7.74353248E-05
   62.5733147         7.72884960E-05
   62.7001076         7.73134379E-05
   62.8268967         7.75583030E-05
   62.9536896         7.80669143E-05
   63.0804825         7.88764082E-05
   63.2072754         8.00153794E-05
   63.3340683         8.15018284E-05
   63.4608612         8.33421436E-05
   63.5876541         8.55301041E-05
   63.7144470         8.80467560E-05
   63.8412399         9.08606162E-05
   63.9680328         9.39287347E-05
   64.0948257         9.71978443E-05
   64.2216187         1.00606434E-04
   64.3484116         1.04086925E-04
   64.4752045         1.07568194E-04
   64.6019974         1.10978530E-04
   64.7287903         1.14248352E-04
   64.8555832         1.17313095E-04
   64.9823761         1.20115765E-04
   65.1091690         1.22609257E-04
   65.2359619         1.24758182E-04
   65.3627548         1.26539991E-04
   65.4895477         1.27945968E-04
   65.6163330         1.28981046E-04
   65.7431259         1.29663313E-04
   65.8699188         1.30023313E-04
   65.9967117         1.30101747E-04
   66.1235046         1.29948094E-04
   66.2502975         1.29617954E-04
   66.3770905         1.29170468E-04
   66.5038834         1.28665677E-04
   66.6306763         1.28161744E-04
   66.7574692         1.27712716E-04
   66.8842621         1.27366060E-04
   67.0110550         1.27161067E-04
   67.1378479         1.27127496E-04
   67.2646408         1.27284889E-04
   67.3914337         1.27642081E-04
   67.5182266         1.28197717E-04
   67.6450195         1.28941087E-04
   67.7718124         1.29852866E-04
   67.8986053         1.30907109E-04
   68.0253983         1.32072440E-04
   68.1521912         1.33314112E-04
   68.2789841         1.34595743E-04
   68.4057770         1.35880953E-04
   68.5325699         1.37134848E-04
   68.6593628         1.38325340E-04
   68.7861557         1.39423864E-04
   68.9129486         1.40405988E-04
   69.0397415         1.41251498E-04
   69.1665344         1.41944241E-04
   69.2933273         1.42471414E-04
   69.4201126         1.42822915E-04
   69.5469055         1.42990364E-04
   69.6736984         1.42966164E-04
   69.8004913         1.42742603E-04
   69.9272842         1.42310921E-04
   70.0540771         1.41660930E-04
   70.1808701         1.40780539E-04
   70.3076630         1.39655749E-04
   70.4344559         1.38270960E-04
   70.5612488         1.36609611E-04
   70.6880417         1.34655202E-04
   70.8148346         1.32392233E-04
   70.9416275         1.29807944E-04
   71.0684204         1.26893501E-04
   71.1952133         1.23645892E-04
   71.3220062         1.20069169E-04
   71.4487991         1.16175805E-04
   71.5755920         1.11987756E-04
   71.7023849         1.07537002E-04
   71.8291779         1.02865910E-04
   71.9559708         9.80269251E-05
   72.0827637         9.30820170E-05
   72.2095566         8.81015949E-05
   72.3363495         8.31628931E-05
   72.4631424         7.83481082E-05
   72.5899353         7.37420924E-05
   72.7167282         6.94298215E-05
   72.8435211         6.54936666E-05
   72.9703140         6.20105493E-05
   73.0971069         5.90493873E-05
   73.2238922         5.66683375E-05
   73.3506851         5.49128781E-05
   73.4774780         5.38137137E-05
   73.6042709         5.33856946E-05
   73.7310638         5.36267398E-05
   73.8578568         5.45178846E-05
   73.9846497         5.60235021E-05
   74.1114426         5.80923843E-05
   74.2382355         6.06594040E-05
   74.3650284         6.36474433E-05
   74.4918213         6.69703149E-05
   74.6186142         7.05356360E-05
   74.7454071         7.42480333E-05
   74.8722000         7.80126284E-05
   74.9989929         8.17382752E-05
   75.1257858         8.53406382E-05
   75.2525787         8.87451388E-05
   75.3793716         9.18890655E-05
   75.5061646         9.47236331E-05
   75.6329575         9.72149792E-05
   75.7597504         9.93450449E-05
   75.8865433         1.01111174E-04
   76.0133362         1.02525621E-04
   76.1401291         1.03614038E-04
   76.2669220         1.04413717E-04
   76.3937149         1.04970779E-04
   76.5205078         1.05337902E-04
   76.6473007         1.05571024E-04
   76.7740936         1.05726467E-04
   76.9008865         1.05858162E-04
   77.0276718         1.06014930E-04
   77.1544647         1.06238156E-04
   77.2812576         1.06560226E-04
   77.4080505         1.07002867E-04
   77.5348434         1.07576765E-04
   77.6616364         1.08281209E-04
   77.7884293         1.09104665E-04
   77.9152222         1.10025641E-04
   78.0420151         1.11014284E-04
   78.1688080         1.12034199E-04
   78.2956009         1.13044764E-04
   78.4223938         1.14003349E-04
   78.5491867         1.14867835E-04
   78.6759796         1.15598799E-04
   78.8027725         1.16161682E-04
   78.9295654         1.16528594E-04
   79.0563583         1.16679796E-04
   79.1831512         1.16604744E-04
   79.3099442         1.16302792E-04
   79.4367371         1.15783274E-04
   79.5635300         1.15065333E-04
   79.6903229         1.14177135E-04
   79.8171158         1.13154965E-04
   79.9439087         1.12041511E-04
   80.0707016         1.10884466E-04
   80.1974945         1.09734450E-04
   80.3242874         1.08643188E-04
   80.4510803         1.07661617E-04
   80.5778732         1.06837746E-04
   80.7046585         1.06215324E-04
   80.8314514         1.05831976E-04
   80.9582443         1.05718071E-04
   81.0850372         1.05895626E-04
   81.2118301         1.06377731E-04
   81.3386230         1.07168176E-04
   81.4654160         1.08261214E-04
   81.5922089         1.09642140E-04
   81.7190018         1.11287598E-04
   81.8457947         1.13166730E-04
   81.9725876         1.15242139E-04
   82.0993805         1.17471325E-04
   82.2261734         1.19808064E-04
   82.3529663         1.22204045E-04
   82.4797592         1.24610582E-04
   82.6065521         1.26980070E-04
   82.7333450         1.29267617E-04
   82.8601379         1.31432404E-04
   82.9869308         1.33438938E-04
   83.1137238         1.35257767E-04
   83.2405167         1.36866380E-04
   83.3673096         1.38249336E-04
   83.4941025         1.39398311E-04
   83.6208954         1.40311706E-04
   83.7476883         1.40994045E-04
   83.8744812         1.41454962E-04
   84.0012741         1.41708151E-04
   84.1280670         1.41769822E-04
   84.2548599         1.41657321E-04
   84.3816528         1.41387616E-04
   84.5084381         1.40975637E-04
   84.6352310         1.40433171E-04
   84.7620239         1.39767493E-04
   84.8888168         1.38980700E-04
   85.0156097         1.38068979E-04
   85.1424026         1.37022696E-04
   85.2691956         1.35826529E-04
   85.3959885         1.34460133E-04
   85.5227814         1.32899222E-04
   85.6495743         1.31116976E-04
   85.7763672         1.29085660E-04
   85.9031601         1.26778701E-04
   86.0299530         1.24172540E-04
   86.1567459         1.21248871E-04
   86.2835388         1.17996431E-04
   86.4103317         1.14412804E-04
   86.5371246         1.10505971E-04
   86.6639175         1.06295069E-04
   86.7907104         1.01811245E-04
   86.9175034         9.70973997E-05
   87.0442963         9.22079053E-05
   87.1710892         8.72074670E-05
   87.2978821         8.21695430E-05
   87.4246750         7.71743871E-05
   87.5514679         7.23067787E-05
   87.6782608         6.76531199E-05
   87.8050537         6.32988304E-05
   87.9318466         5.93252444E-05
   88.0586395         5.58069514E-05
   88.1854324         5.28091659E-05
   88.3122177         5.03856645E-05
   88.4390106         4.85768433E-05
   88.5658035         4.74087537E-05
   88.6925964         4.68922881E-05
   88.8193893         4.70232044E-05
   88.9461823         4.77826361E-05
   89.0729752         4.91381325E-05
   89.1997681         5.10451355E-05
   89.3265610         5.34489918E-05
   89.4533539         5.62871537E-05
   89.5801468         5.94916455E-05
   89.7069397         6.29914721E-05
   89.8337326         6.67151471E-05
   89.9605255         7.05928251E-05
   90.0873184         7.45583675E-05
   90.2141113         7.85505690E-05
   90.3409042         8.25146562E-05
   90.4676971         8.64026952E-05
   90.5944901         9.01739331E-05
   90.7212830         9.37947625E-05
   90.8480759         9.72381677E-05
   90.9748688         1.00483114E-04
   91.1016617         1.03513550E-04
   91.2284546         1.06317733E-04
   91.3552475         1.08886910E-04
   91.4820404         1.11214809E-04
   91.6088333         1.13296679E-04
   91.7356262         1.15128947E-04
   91.8624191         1.16708943E-04
   91.9892120         1.18035248E-04
   92.1159973         1.19107885E-04
   92.2427902         1.19929115E-04
   92.3695831         1.20504163E-04
   92.4963760         1.20842073E-04
   92.6231689         1.20956633E-04
   92.7499619         1.20866847E-04
   92.8767548         1.20597593E-04
   93.0035477         1.20179662E-04
   93.1303406         1.19649711E-04
   93.2571335         1.19049582E-04
   93.3839264         1.18425458E-04
   93.5107193         1.17826523E-04
   93.6375122         1.17303258E-04
   93.7643051         1.16905387E-04
   93.8910980         1.16679650E-04
   94.0178909         1.16667594E-04
   94.1446838         1.16903015E-04
   94.2714767         1.17410018E-04
   94.3982697         1.18201002E-04
   94.5250626         1.19275515E-04
   94.6518555         1.20619079E-04
   94.7786484         1.22203084E-04
   94.9054413         1.23985199E-04
   95.0322342         1.25910316E-04
   95.1590271         1.27912324E-04
   95.2858200         1.29916385E-04
   95.4126129         1.31841458E-04
   95.5394058         1.33603709E-04
   95.6661987         1.35119830E-04
   95.7929916         1.36310671E-04
   95.9197769         1.37104726E-04
   96.0465698         1.37441690E-04
   96.1733627         1.37275158E-04
   96.3001556         1.36575385E-04
   96.4269485         1.35330833E-04
   96.5537415         1.33549358E-04
   96.6805344         1.31258334E-04
   96.8073273         1.28504107E-04
   96.9341202         1.25350532E-04
   97.0609131         1.21876838E-04
   97.1877060         1.18174743E-04
   97.3144989         1.14345174E-04
   97.4412918         1.10494453E-04
   97.5680847         1.06730193E-04
   97.6948776         1.03157268E-04
   97.8216705         9.98736214E-05
   97.9484634         9.69667090E-05
   98.0752563         9.45100037E-05