  -4.50000000         0.00000000    
  -4.37320757         0.00000000    
  -4.24641466         0.00000000    
  -4.11962223         0.00000000    
  -3.99282932        -2.82382732E-23
  -3.86603665        -9.87300507E-23
  -3.73924398         6.27487631E-22
  -3.61245155         6.42234135E-21
  -3.48565888         2.75882958E-20
  -3.35886621         7.59640282E-20
  -3.23207355         1.45723853E-19
  -3.10528088         1.86306561E-19
  -2.97848821         9.96935458E-20
  -2.85169554        -1.98272556E-19
  -2.72490287        -6.58235073E-19
  -2.59811020        -1.01855205E-18
  -2.47131753        -9.33681667E-19
  -2.34452486        -4.09086023E-19
  -2.21773219        -4.03509637E-19
  -2.09093952        -3.16983262E-18
  -1.96414697        -1.18138431E-17
  -1.83735430        -2.88569137E-17
  -1.71056163        -5.42401254E-17
  -1.58376896        -8.38413924E-17
  -1.45697629        -1.09719969E-16
  -1.33018374        -1.22705110E-16
  -1.20339108        -1.16820614E-16
  -1.07659841        -9.39357487E-17
 -0.949805737        -6.65063337E-17
 -0.823013067        -5.64878464E-17
 -0.696220458        -8.92700067E-17
 -0.569427788        -1.82597989E-16
 -0.442635119        -3.32029927E-16
 -0.315842479        -4.96914049E-16
 -0.189049825        -5.94051364E-16
  -6.22571707E-02    -5.08672243E-16
   6.45354837E-02    -1.31428583E-16
  0.191328138         5.77353221E-16
  0.318120778         1.50908353E-15
  0.444913447         2.34416008E-15
  0.571706116         2.54692495E-15
  0.698498726         1.45648003E-15
  0.825291395        -1.51326555E-15
  0.952084064        -6.59381861E-15
   1.07887673        -1.33784111E-14
   1.20566940        -2.06401855E-14
   1.33246195        -2.63519658E-14
   1.45925462        -2.79594886E-14
   1.58604729        -2.28801099E-14
   1.71283996        -9.11469031E-15
   1.83963263         1.41976046E-14
   1.96642530         4.64561081E-14
   2.09321785         8.56290204E-14
   2.22001052         1.28665619E-13
   2.34680319         1.72218752E-13
   2.47359586         2.13537006E-13
   2.60038853         2.51372382E-13
   2.72718120         2.86785813E-13
   2.85397387         3.23798497E-13
   2.98076653         3.69886034E-13
   3.10755920         4.36316239E-13
   3.23435187         5.38277268E-13
   3.36114454         6.94657439E-13
   3.48793697         9.27267703E-13
   3.61472964         1.25929594E-12
   3.74152231         1.71288298E-12
   3.86831498         2.30591999E-12
   3.99510765         3.04842197E-12
   4.12190056         3.93910425E-12
   4.24869299         4.96297231E-12
   4.37548542         6.09080147E-12
   4.50227833         7.28127367E-12
   4.62907076         8.48626551E-12
   4.75586367         9.65932022E-12
   4.88265610         1.07667200E-11
   5.00944901         1.17998441E-11
   5.13624144         1.27868228E-11
   5.26303434         1.38008797E-11
   5.38982677         1.49625416E-11
   5.51661968         1.64333634E-11
   5.64341211         1.83996290E-11
   5.77020502         2.10465794E-11
   5.89699745         2.45256107E-11
   6.02379036         2.89194294E-11
   6.15058279         3.42117654E-11
   6.27737522         4.02687293E-11
   6.40416813         4.68376379E-11
   6.53096056         5.35659503E-11
   6.65775347         6.00379330E-11
   6.78454590         6.58209251E-11
   6.91133881         7.05079745E-11
   7.03813124         7.37401945E-11
   7.16492414         7.51926230E-11
   7.29171658         7.45120701E-11
   7.41850948         7.12047366E-11
   7.54530191         6.44835851E-11
   7.67209482         5.30991986E-11
   7.79888725         3.51897435E-11
   7.92567968         8.19083256E-12
   8.05247211        -3.11542216E-11
   8.17926502        -8.66564945E-11
   8.30605793        -1.62408392E-10
   8.43285084        -2.62396244E-10
   8.55964279        -3.90048771E-10
   8.68643570        -5.47796419E-10
   8.81322861        -7.36730177E-10
   8.94002151        -9.56444035E-10
   9.06681347        -1.20511967E-09
   9.19360638        -1.47986867E-09
   9.32039928        -1.77727910E-09
   9.44719219        -2.09405826E-09
   9.57398415        -2.42758413E-09
   9.70077705        -2.77616485E-09
   9.82756996        -3.13877768E-09
   9.95436192        -3.51409613E-09
   10.0811548        -3.89872534E-09
   10.2079477        -4.28461444E-09
   10.3347406        -4.65582861E-09
   10.4615326        -4.98491826E-09
   10.5883255        -5.22932009E-09
   10.7151184        -5.32818545E-09
   10.8419113        -5.20021315E-09
   10.9687033        -4.74281192E-09
   11.0954962        -3.83303789E-09
   11.2222891        -2.33043296E-09
   11.3490820        -8.18927981E-11
   11.4758739         3.07160763E-09
   11.6026669         7.28659888E-09
   11.7294598         1.27073614E-08
   11.8562517         1.94553689E-08
   11.9830446         2.76181975E-08
   12.1098375         3.72388982E-08
   12.2366304         4.83061342E-08
   12.3634224         6.07466291E-08
   12.4902153         7.44205195E-08
   12.6170082         8.91218050E-08
   12.7438011         1.04585432E-07
   12.8705931         1.20503273E-07
   12.9973860         1.36552273E-07
   13.1241789         1.52435874E-07
   13.2509708         1.67942758E-07
   13.3777637         1.83024795E-07
   13.5045567         1.97894721E-07
   13.6313496         2.13145555E-07
   13.7581415         2.29891612E-07
   13.8849344         2.49927950E-07
   14.0117273         2.75908320E-07
   14.1385202         3.11534308E-07
   14.2653122         3.61753962E-07
   14.3921051         4.32960292E-07
   14.5188980         5.33185982E-07
   14.6456909         6.72285125E-07
   14.7724829         8.62087461E-07
   14.8992758         1.11653435E-06
   15.0260687         1.45176557E-06
   15.1528606         1.88616252E-06
   15.2796535         2.44034231E-06
   15.4064465         3.13708279E-06
   15.5332394         4.00118506E-06
   15.6600313         5.05926710E-06
   15.7868242         6.33947775E-06
   15.9136171         7.87114823E-06
   16.0404091         9.68433869E-06
   16.1672020         1.18093540E-05
   16.2939949         1.42761728E-05
   16.4207878         1.71138054E-05
   16.5475807         2.03496675E-05
   16.6743736         2.40088229E-05
   16.8011646         2.81133380E-05
   16.9279575         3.26815316E-05
   17.0547504         3.77273136E-05
   17.1815434         4.32596134E-05
   17.3083363         4.92817417E-05
   17.4351292         5.57910716E-05
   17.5619221         6.27786576E-05
   17.6887150         7.02291291E-05
   17.8155060         7.81206763E-05
   17.9422989         8.64252361E-05
   18.0690918         9.51089824E-05
   18.1958847         1.04132749E-04
   18.3226776         1.13452887E-04
   18.4494705         1.23022357E-04
   18.5762634         1.32791494E-04
   18.7030544         1.42709410E-04
   18.8298473         1.52725188E-04
   18.9566402         1.62789322E-04
   19.0834332         1.72854707E-04
   19.2102261         1.82878226E-04
   19.3370190         1.92821666E-04
   19.4638119         2.02652678E-04
   19.5906048         2.12345578E-04
   19.7173958         2.21881855E-04
   19.8441887         2.31250597E-04
   19.9709816         2.40448164E-04
   20.0977745         2.49478355E-04
   20.2245674         2.58351472E-04
   20.3513603         2.67083495E-04
   20.4781532         2.75695609E-04
   20.6049442         2.84212263E-04
   20.7317371         2.92660348E-04
   20.8585300         3.01067659E-04
   20.9853230         3.09461320E-04
   21.1121159         3.17866623E-04
   21.2389088         3.26305948E-04
   21.3657017         3.34797194E-04
   21.4924946         3.43353429E-04
   21.6192856         3.51982279E-04
   21.7460785         3.60685430E-04
   21.8728714         3.69459129E-04
   21.9996643         3.78293975E-04
   22.1264572         3.87176115E-04
   22.2532501         3.96087591E-04
   22.3800430         4.05007857E-04
   22.5068340         4.13914415E-04
   22.6336269         4.22784680E-04
   22.7604198         4.31596651E-04
   22.8872128         4.40330448E-04
   23.0140057         4.48969164E-04
   23.1407986         4.57499758E-04
   23.2675915         4.65913763E-04
   23.3943844         4.74207889E-04
   23.5211754         4.82383912E-04
   23.6479683         4.90448903E-04
   23.7747612         4.98415146E-04
   23.9015541         5.06299897E-04
   24.0283470         5.14124404E-04
   24.1551399         5.21913753E-04
   24.2819328         5.29696641E-04
   24.4087238         5.37503744E-04
   24.5355167         5.45367657E-04
   24.6623096         5.53323014E-04
   24.7891026         5.61404624E-04
   24.9158955         5.69647586E-04
   25.0426884         5.78087056E-04
   25.1694813         5.86757320E-04
   25.2962742         5.95691905E-04
   25.4230652         6.04922534E-04
   25.5498581         6.14478835E-04
   25.6766510         6.24387874E-04
   25.8034439         6.34672993E-04
   25.9302368         6.45353459E-04
   26.0570297         6.56443299E-04
   26.1838226         6.67949615E-04
   26.3106136         6.79871766E-04
   26.4374065         6.92200148E-04
   26.5641994         7.04913808E-04
   26.6909924         7.17979681E-04
   26.8177853         7.31350388E-04
   26.9445782         7.44963007E-04
   27.0713711         7.58737675E-04
   27.1981640         7.72576313E-04
   27.3249550         7.86361750E-04
   27.4517479         7.99957314E-04
   27.5785408         8.13206425E-04
   27.7053337         8.25933123E-04
   27.8321266         8.37943051E-04
   27.9589195         8.49024334E-04
   28.0857124         8.58949730E-04
   28.2125034         8.67479597E-04
   28.3392963         8.74363293E-04
   28.4660892         8.79344065E-04
   28.5928822         8.82160733E-04
   28.7196751         8.82553810E-04
   28.8464680         8.80266947E-04
   28.9732609         8.75053112E-04
   29.1000538         8.66677321E-04
   29.2268448         8.54920654E-04
   29.3536377         8.39584565E-04
   29.4804306         8.20493384E-04
   29.6072235         7.97497865E-04
   29.7340164         7.70477869E-04
   29.8608093         7.39344512E-04
   29.9876022         7.04041566E-04
   30.1143932         6.64546969E-04
   30.2411861         6.20874402E-04
   30.3679790         5.73072641E-04
   30.4947720         5.21226320E-04
   30.6215649         4.65455319E-04
   30.7483578         4.05914150E-04
   30.8751507         3.42791172E-04
   31.0019417         2.76307139E-04
   31.1287346         2.06713739E-04
   31.2555275         1.34291942E-04
   31.3823204         5.93502409E-05
   31.5091133        -1.77774982E-05
   31.6359062        -9.67340893E-05
   31.7626991        -1.77141614E-04
   31.8894920        -2.58603308E-04
   32.0162849        -3.40706640E-04
   32.1430779        -4.23025631E-04
   32.2698708        -5.05123520E-04
   32.3966637        -5.86556096E-04
   32.5234528        -6.66874577E-04
   32.6502457        -7.45628437E-04
   32.7770386        -8.22369300E-04
   32.9038315        -8.96653859E-04
   33.0306244        -9.68048058E-04
   33.1574173        -1.03613012E-03
   33.2842102        -1.10049476E-03
   33.4110031        -1.16075680E-03
   33.5377960        -1.21655536E-03
   33.6645889        -1.26755587E-03
   33.7913818        -1.31345645E-03
   33.9181747        -1.35398854E-03
   34.0449677        -1.38892198E-03
   34.1717606        -1.41806621E-03
   34.2985535        -1.44127419E-03
   34.4253426        -1.45844254E-03
   34.5521355        -1.46951515E-03
   34.6789284        -1.47448212E-03
   34.8057213        -1.47338049E-03
   34.9325142        -1.46629440E-03
   35.0593071        -1.45335367E-03
   35.1861000        -1.43473269E-03
   35.3128929        -1.41064730E-03
   35.4396858        -1.38135231E-03
   35.5664787        -1.34713913E-03
   35.6932716        -1.30833057E-03
   35.8200645        -1.26527750E-03
   35.9468575        -1.21835410E-03
   36.0736504        -1.16795325E-03
   36.2004433        -1.11448078E-03
   36.3272324        -1.05835276E-03
   36.4540253        -9.99987824E-04
   36.5808182        -9.39804188E-04
   36.7076111        -8.78214545E-04
   36.8344040        -8.15622625E-04
   36.9611969        -7.52418127E-04
   37.0879898        -6.88974222E-04
   37.2147827        -6.25644636E-04
   37.3415756        -5.62760863E-04
   37.4683685        -5.00630878E-04
   37.5951614        -4.39537689E-04
   37.7219543        -3.79738776E-04
   37.8487473        -3.21465952E-04
   37.9755402        -2.64925533E-04
   38.1023293        -2.10299491E-04
   38.2291222        -1.57746123E-04
   38.3559151        -1.07401873E-04
   38.4827080        -5.93826371E-05
   38.6095009        -1.37856086E-05
   38.7362938         2.93091816E-05
   38.8630867         6.98371223E-05
   38.9898796         1.07747575E-04
   39.1166725         1.43002864E-04
   39.2434654         1.75577035E-04
   39.3702583         2.05455435E-04
   39.4970512         2.32634120E-04
   39.6238441         2.57119827E-04
   39.7506371         2.78930587E-04
   39.8774300         2.98095634E-04
   40.0042191         3.14656412E-04
   40.1310120         3.28667025E-04
   40.2578049         3.40195198E-04
   40.3845978         3.49322770E-04
   40.5113907         3.56146280E-04
   40.6381836         3.60776787E-04
   40.7649765         3.63340252E-04
   40.8917694         3.63976520E-04
   41.0185623         3.62838211E-04
   41.1453552         3.60089325E-04
   41.2721481         3.55902885E-04
   41.3989410         3.50458839E-04
   41.5257339         3.43940366E-04
   41.6525269         3.36530968E-04
   41.7793198         3.28410562E-04
   41.9061089         3.19751853E-04
   42.0329018         3.10716365E-04
   42.1596947         3.01451073E-04
   42.2864876         2.92084616E-04
   42.4132805         2.82724795E-04
   42.5400734         2.73456157E-04
   42.6668663         2.64338276E-04
   42.7936592         2.55405059E-04
   42.9204521         2.46664975E-04
   43.0472450         2.38101769E-04
   43.1740379         2.29676763E-04
   43.3008308         2.21331269E-04
   43.4276237         2.12990504E-04
   43.5544167         2.04567739E-04
   43.6812096         1.95969056E-04
   43.8079987         1.87098762E-04
   43.9347916         1.77864640E-04
   44.0615845         1.68183426E-04
   44.1883774         1.57985909E-04
   44.3151703         1.47221712E-04
   44.4419632         1.35863316E-04
   44.5687561         1.23909675E-04
   44.6955490         1.11388297E-04
   44.8223419         9.83568025E-05
   44.9491348         8.49031785E-05
   45.0759277         7.11449029E-05
   45.2027206         5.72272111E-05
   45.3295135         4.33198802E-05
   45.4563065         2.96133985E-05
   45.5830994         1.63145432E-05
   45.7098885         3.64061998E-06
   45.8366814        -8.18597346E-06
   45.9634743        -1.89439797E-05
   46.0902672        -2.84192811E-05
   46.2170601        -3.64108382E-05
   46.3438530        -4.27364503E-05
   46.4706459        -4.72377942E-05
   46.5974388        -4.97849178E-05
   46.7242317        -5.02800576E-05
   46.8510246        -4.86605422E-05
   46.9778175        -4.49007894E-05
   47.1046104        -3.90134228E-05
   47.2314034        -3.10495452E-05
   47.3581963        -2.10980052E-05
   47.4849892        -9.28392092E-06
   47.6117783         4.23350775E-06
   47.7385712         1.92639145E-05
   47.8653641         3.55892225E-05
   47.9921570         5.29675453E-05
   48.1189499         7.11376415E-05
   48.2457428         8.98232611E-05
   48.3725357         1.08738284E-04
   48.4993286         1.27591353E-04
   48.6261215         1.46090970E-04
   48.7529144         1.63950623E-04
   48.8797073         1.80893359E-04
   49.0065002         1.96656663E-04
   49.1332932         2.10996805E-04
   49.2600861         2.23692987E-04
   49.3868790         2.34551291E-04
   49.5136681         2.43407689E-04
   49.6404610         2.50130979E-04
   49.7672539         2.54624814E-04
   49.8940468         2.56829750E-04
   50.0208397         2.56723317E-04
   50.1476326         2.54321028E-04
   50.2744255         2.49675155E-04
   50.4012184         2.42873881E-04
   50.5280113         2.34039268E-04
   50.6548042         2.23324532E-04
   50.7815971         2.10911079E-04
   50.9083900         1.97004672E-04
   51.0351830         1.81831259E-04
   51.1619759         1.65632722E-04
   51.2887688         1.48661798E-04
   51.4155579         1.31177687E-04
   51.5423508         1.13440707E-04
   51.6691437         9.57078228E-05
   51.7959366         7.82279312E-05
   51.9227295         6.12376389E-05
   52.0495224         4.49572399E-05
   52.1763153         2.95873779E-05
   52.3031082         1.53061173E-05
   52.4299011         2.26652264E-06
   52.5566940        -9.40483642E-06
   52.6834869        -1.96091241E-05
   52.8102798        -2.82755755E-05
   52.9370728        -3.53613177E-05
   53.0638657        -4.08506021E-05
   53.1906586        -4.47535531E-05
   53.3174477        -4.71043459E-05
   53.4442406        -4.79590963E-05
   53.5710335        -4.73934488E-05
   53.6978264        -4.55000045E-05
   53.8246193        -4.23855017E-05
   53.9514122        -3.81680911E-05
   54.0782051        -3.29747563E-05
   54.2049980        -2.69385273E-05
   54.3317909        -2.01962630E-05
   54.4585838        -1.28862966E-05
   54.5853767        -5.14664771E-06
   54.7121696         2.88689489E-06
   54.8389626         1.10821475E-05
   54.9657555         1.93119449E-05
   55.0925484         2.74551276E-05
   55.2193375         3.53978830E-05
   55.3461304         4.30343534E-05
   55.4729233         5.02676121E-05
   55.5997162         5.70105731E-05
   55.7265091         6.31866715E-05
   55.8533020         6.87307547E-05
   55.9800949         7.35896756E-05
   56.1068878         7.77230525E-05
   56.2336807         8.11037607E-05
   56.3604736         8.37182888E-05
   56.4872665         8.55670369E-05
   56.6140594         8.66640476E-05
   56.7408524         8.70369258E-05
   56.8676453         8.67260751E-05
   56.9944382         8.57838386E-05
   57.1212273         8.42731170E-05
   57.2480202         8.22660877E-05
   57.3748131         7.98422407E-05
   57.5016060         7.70864717E-05
   57.6283989         7.40868636E-05
   57.7551918         7.09325832E-05
   57.8819847         6.77115167E-05
   58.0087776         6.45081527E-05
   58.1355705         6.14015735E-05
   58.2623634         5.84638328E-05
   58.3891563         5.57581952E-05
   58.5159492         5.33382736E-05
   58.6427422         5.12470942E-05
   58.7695351         4.95169697E-05
   58.8963280         4.81692950E-05
   59.0231171         4.72154243E-05
   59.1499100         4.66571910E-05
   59.2767029         4.64882723E-05
   59.4034958         4.66955789E-05
   59.5302887         4.72608262E-05
   59.6570816         4.81622192E-05
   59.7838745         4.93761181E-05
   59.9106674         5.08785342E-05
   60.0374603         5.26464937E-05
   60.1642532         5.46590272E-05
   60.2910461         5.68977594E-05
   60.4178391         5.93472796E-05
   60.5446320         6.19949278E-05
   60.6714249         6.48300702E-05
   60.7982178         6.78432334E-05
   60.9250069         7.10245877E-05
   61.0517998         7.43623605E-05
   61.1785927         7.78409085E-05
   61.3053856         8.14387313E-05
   61.4321785         8.51267687E-05
   61.5589714         8.88664217E-05
   61.6857643         9.26083449E-05
   61.8125572         9.62913764E-05
   61.9393501         9.98419491E-05
   62.0661430         1.03174410E-04
   62.1929359         1.06191816E-04
   62.3197289         1.08787288E-04
   62.4465218         1.10846362E-04
   62.5733147         1.12249712E-04
   62.7001076         1.12876682E-04
   62.8268967         1.12609043E-04
   62.9536896         1.11335343E-04
   63.0804825         1.08955210E-04
   63.2072754         1.05383893E-04
   63.3340683         1.00556375E-04
   63.4608612         9.44315034E-05
   63.5876541         8.69952273E-05
   63.7144470         7.82634597E-05
   63.8412399         6.82838872E-05
   63.9680328         5.71371493E-05
   64.0948257         4.49367290E-05
   64.2216187         3.18279963E-05
   64.3484116         1.79862145E-05
   64.4752045         3.61346883E-06
   64.6019974        -1.10651945E-05
   64.7287903        -2.58065811E-05
   64.8555832        -4.03546474E-05
   64.9823761        -5.44464419E-05
   65.1091690        -6.78182405E-05
   65.2359619        -8.02118739E-05
   65.3627548        -9.13807744E-05
   65.4895477        -1.01096171E-04
   65.6163330        -1.09152264E-04
   65.7431259        -1.15371062E-04
   65.8699188        -1.19606710E-04
   65.9967117        -1.21748228E-04
   66.1235046        -1.21722034E-04
   66.2502975        -1.19493117E-04
   66.3770905        -1.15065253E-04
   66.5038834        -1.08480315E-04
   66.6306763        -9.98166579E-05
   66.7574692        -8.91867967E-05
   66.8842621        -7.67342644E-05
   67.0110550        -6.26300025E-05
   67.1378479        -4.70683408E-05
   67.2646408        -3.02627886E-05
   67.3914337        -1.24414055E-05
   67.5182266         6.15741101E-06
   67.6450195         2.52892733E-05
   67.7718124         4.47079183E-05
   67.8986053         6.41688312E-05
   68.0253983         8.34327511E-05
   68.1521912         1.02268554E-04
   68.2789841         1.20455908E-04
   68.4057770         1.37787254E-04
   68.5325699         1.54069872E-04
   68.6593628         1.69127045E-04
   68.7861557         1.82799224E-04
   68.9129486         1.94945169E-04
   69.0397415         2.05442280E-04
   69.1665344         2.14187618E-04
   69.2933273         2.21098147E-04
   69.4201126         2.26111137E-04
   69.5469055         2.29184952E-04
   69.6736984         2.30299091E-04
   69.8004913         2.29454905E-04
   69.9272842         2.26675562E-04
   70.0540771         2.22006638E-04
   70.1808701         2.15515771E-04
   70.3076630         2.07292862E-04
   70.4344559         1.97449233E-04
   70.5612488         1.86117191E-04
   70.6880417         1.73448716E-04
   70.8148346         1.59613759E-04
   70.9416275         1.44798469E-04
   71.0684204         1.29202395E-04
   71.1952133         1.13036032E-04
   71.3220062         9.65172658E-05
   71.4487991         7.98679830E-05
   71.5755920         6.33102827E-05
   71.7023849         4.70625309E-05
   71.8291779         3.13355995E-05
   71.9559708         1.63290060E-05
   72.0827637         2.22741642E-06
   72.2095566        -1.08025533E-05
   72.3363495        -2.26151606E-05
   72.4631424        -3.30877483E-05
   72.5899353        -4.21223922E-05
   72.7167282        -4.96470093E-05
   72.8435211        -5.56157866E-05
   72.9703140        -6.00089988E-05
   73.0971069        -6.28323687E-05
   73.2238922        -6.41157458E-05
   73.3506851        -6.39116479E-05
   73.4774780        -6.22931693E-05
   73.6042709        -5.93519762E-05
   73.7310638        -5.51958074E-05
   73.8578568        -4.99462330E-05
   73.9846497        -4.37361850E-05
   74.1114426        -3.67076318E-05
   74.2382355        -2.90093485E-05
   74.3650284        -2.07946032E-05
   74.4918213        -1.22191968E-05
   74.6186142        -3.43940064E-06
   74.7454071         5.39000939E-06
   74.8722000         1.41175642E-05
   74.9989929         2.25969707E-05
   75.1257858         3.06890033E-05
   75.2525787         3.82630569E-05
   75.3793716         4.51991546E-05
   75.5061646         5.13894302E-05
   75.6329575         5.67398492E-05
   75.7597504         6.11717624E-05
   75.8865433         6.46230837E-05
   76.0133362         6.70497320E-05
   76.1401291         6.84263287E-05
   76.2669220         6.87470601E-05
   76.3937149         6.80258890E-05
   76.5205078         6.62966268E-05
   76.6473007         6.36125551E-05
   76.7740936         6.00457570E-05
   76.9008865         5.56858940E-05
   77.0276718         5.06389733E-05
   77.1544647         4.50253683E-05
   77.2812576         3.89778688E-05
   77.4080505         3.26393165E-05
   77.5348434         2.61600289E-05
   77.6616364         1.96950932E-05
   77.7884293         1.34014281E-05
   77.9152222         7.43483042E-06
   78.0420151         1.94690756E-06
   78.1688080        -2.91799506E-06
   78.2956009        -7.02573607E-06
   78.4223938        -1.02553104E-05
   78.5491867        -1.25016468E-05
   78.6759796        -1.36780136E-05
   78.8027725        -1.37183697E-05
   78.9295654        -1.25792449E-05
   79.0563583        -1.02412014E-05
   79.1831512        -6.70988175E-06
   79.3099442        -2.01659736E-06
   79.4367371         3.78175946E-06
   79.5635300         1.06033267E-05
   79.6903229         1.83423726E-05
   79.8171158         2.68711701E-05
   79.9439087         3.60424092E-05
   80.0707016         4.56918824E-05
   80.1974945         5.56422128E-05
   80.3242874         6.57063574E-05
   80.4510803         7.56919617E-05
   80.5778732         8.54056561E-05
   80.7046585         9.46576329E-05
   80.8314514         1.03266262E-04
   80.9582443         1.11062400E-04
   81.0850372         1.17893782E-04
   81.2118301         1.23628721E-04
   81.3386230         1.28159678E-04
   81.4654160         1.31405963E-04
   81.5922089         1.33315989E-04
   81.7190018         1.33868642E-04
   81.8457947         1.33073961E-04
   81.9725876         1.30973043E-04
   82.0993805         1.27636828E-04
   82.2261734         1.23164704E-04
   82.3529663         1.17681477E-04
   82.4797592         1.11334411E-04
   82.6065521         1.04289211E-04
   82.7333450         9.67257147E-05
   82.8601379         8.88330906E-05
   82.9869308         8.08045952E-05
   83.1137238         7.28325758E-05
   83.2405167         6.51031660E-05
   83.3673096         5.77912033E-05
   83.4941025         5.10556747E-05
   83.6208954         4.50353291E-05
   83.7476883         3.98450866E-05
   83.8744812         3.55730590E-05
   84.0012741         3.22783890E-05
   84.1280670         2.99899602E-05
   84.2548599         2.87060702E-05
   84.3816528         2.83949194E-05
   84.5084381         2.89961790E-05
   84.6352310         3.04232781E-05
   84.7620239         3.25664078E-05
   84.8888168         3.52964962E-05
   85.0156097         3.84693922E-05
   85.1424026         4.19305397E-05
   85.2691956         4.55200097E-05
   85.3959885         4.90773200E-05
   85.5227814         5.24463539E-05
   85.6495743         5.54798826E-05
   85.7763672         5.80437081E-05
   85.9031601         6.00200838E-05
   86.0299530         6.13108132E-05
   86.1567459         6.18393460E-05
   86.2835388         6.15522295E-05
   86.4103317         6.04197376E-05
   86.5371246         5.84358349E-05
   86.6639175         5.56173763E-05
   86.7907104         5.20027643E-05
   86.9175034         4.76499372E-05
   87.0442963         4.26339975E-05
   87.1710892         3.70445741E-05
   87.2978821         3.09828538E-05
   87.4246750         2.45585579E-05
   87.5514679         1.78868595E-05
   87.6782608         1.10855435E-05
   87.8050537         4.27210034E-06
   87.9318466        -2.43874888E-06
   88.0586395        -8.93728520E-06
   88.1854324        -1.51207623E-05
   88.3122177        -2.08949077E-05
   88.4390106        -2.61750520E-05
   88.5658035        -3.08870767E-05
   88.6925964        -3.49677066E-05
   88.8193893        -3.83647530E-05
   88.9461823        -4.10369357E-05
   89.0729752        -4.29535212E-05
   89.1997681        -4.40937220E-05
   89.3265610        -4.44461621E-05
   89.4533539        -4.40081240E-05
   89.5801468        -4.27848863E-05
   89.7069397        -4.07890693E-05
   89.8337326        -3.80401943E-05
   89.9605255        -3.45642511E-05
   90.0873184        -3.03935631E-05
   90.2141113        -2.55665200E-05
   90.3409042        -2.01278599E-05
   90.4676971        -1.41285855E-05
   90.5944901        -7.62628451E-06
   90.7212830        -6.85308351E-07
   90.8480759         6.62319189E-06
   90.9748688         1.42211447E-05
   91.1016617         2.20239490E-05
   91.2284546         2.99406747E-05
   91.3552475         3.78750992E-05
   91.4820404         4.57265705E-05
   91.6088333         5.33914936E-05
   91.7356262         6.07650836E-05
   91.8624191         6.77433054E-05
   91.9892120         7.42253105E-05
   92.1159973         8.01156202E-05
   92.2427902         8.53267702E-05
   92.3695831         8.97817663E-05
   92.4963760         9.34163836E-05
   92.6231689         9.61813057E-05
   92.7499619         9.80438854E-05
   92.8767548         9.89895780E-05
   93.0035477         9.90227127E-05
   93.1303406         9.81670091E-05
   93.2571335         9.64651626E-05
   93.3839264         9.39781967E-05
   93.5107193         9.07840367E-05
   93.6375122         8.69758369E-05
   93.7643051         8.26595133E-05
   93.8910980         7.79512557E-05
   94.0178909         7.29746025E-05
   94.1446838         6.78573997E-05
   94.2714767         6.27286790E-05
   94.3982697         5.77156861E-05
   94.5250626         5.29408389E-05
   94.6518555         4.85191267E-05
   94.7786484         4.45555524E-05
   94.9054413         4.11431683E-05
   95.0322342         3.83611950E-05
   95.1590271         3.62736937E-05
   95.2858200         3.49286711E-05
   95.4126129         3.43573265E-05
   95.5394058         3.45739936E-05
   95.6661987         3.55762204E-05
   95.7929916         3.73453368E-05
   95.9197769         3.98469565E-05
   96.0465698         4.30322652E-05
   96.1733627         4.68390826E-05
   96.3001556         5.11933431E-05
   96.4269485         5.60105618E-05
   96.5537415         6.11974974E-05
   96.6805344         6.66540291E-05
   96.8073273         7.22747791E-05
   96.9341202         7.79509573E-05
   97.0609131         8.35721657E-05
   97.1877060         8.90283118E-05
   97.3144989         9.42112601E-05
   97.4412918         9.90165645E-05
   97.5680847         1.03345119E-04
   97.6948776         1.07104766E-04
   97.8216705         1.10211622E-04
   97.9484634         1.12591522E-04
   98.0752563         1.14181166E-04