  -4.50000000         0.00000000    
  -4.37320757         0.00000000    
  -4.24641466         0.00000000    
  -4.11962223         0.00000000    
  -3.99282932         0.00000000    
  -3.86603665         0.00000000    
  -3.73924398         0.00000000    
  -3.61245155         0.00000000    
  -3.48565888         0.00000000    
  -3.35886621         0.00000000    
  -3.23207355         0.00000000    
  -3.10528088         0.00000000    
  -2.97848821         0.00000000    
  -2.85169554         0.00000000    
  -2.72490287         0.00000000    
  -2.59811020         0.00000000    
  -2.47131753         0.00000000    
  -2.34452486         0.00000000    
  -2.21773219         0.00000000    
  -2.09093952         0.00000000    
  -1.96414697         0.00000000    
  -1.83735430         0.00000000    
  -1.71056163         0.00000000    
  -1.58376896         0.00000000    
  -1.45697629         0.00000000    
  -1.33018374         0.00000000    
  -1.20339108         0.00000000    
  -1.07659841         0.00000000    
 -0.949805737         0.00000000    
 -0.823013067         0.00000000    
 -0.696220458         0.00000000    
 -0.569427788         0.00000000    
 -0.442635119         0.00000000    
 -0.315842479         0.00000000    
 -0.189049825         0.00000000    
  -6.22571707E-02     0.00000000    
   6.45354837E-02     0.00000000    
  0.191328138         0.00000000    
  0.318120778         0.00000000    
  0.444913447         0.00000000    
  0.571706116         0.00000000    
  0.698498726         0.00000000    
  0.825291395         0.00000000    
  0.952084064         0.00000000    
   1.07887673         0.00000000    
   1.20566940         0.00000000    
   1.33246195         0.00000000    
   1.45925462         0.00000000    
   1.58604729         0.00000000    
   1.71283996         0.00000000    
   1.83963263         0.00000000    
   1.96642530         0.00000000    
   2.09321785         0.00000000    
   2.22001052         0.00000000    
   2.34680319         0.00000000    
   2.47359586         0.00000000    
   2.60038853         0.00000000    
   2.72718120         0.00000000    
   2.85397387         0.00000000    
   2.98076653         0.00000000    
   3.10755920         0.00000000    
   3.23435187         0.00000000    
   3.36114454         0.00000000    
   3.48793697         0.00000000    
   3.61472964         0.00000000    
   3.74152231         0.00000000    
   3.86831498         0.00000000    
   3.99510765         0.00000000    
   4.12190056         0.00000000    
   4.24869299         0.00000000    
   4.37548542         0.00000000    
   4.50227833         0.00000000    
   4.62907076         0.00000000    
   4.75586367         0.00000000    
   4.88265610         0.00000000    
   5.00944901         0.00000000    
   5.13624144         0.00000000    
   5.26303434         0.00000000    
   5.38982677         0.00000000    
   5.51661968         0.00000000    
   5.64341211         0.00000000    
   5.77020502         0.00000000    
   5.89699745         0.00000000    
   6.02379036         0.00000000    
   6.15058279         0.00000000    
   6.27737522         0.00000000    
   6.40416813         0.00000000    
   6.53096056         0.00000000    
   6.65775347         0.00000000    
   6.78454590         0.00000000    
   6.91133881         0.00000000    
   7.03813124         0.00000000    
   7.16492414         0.00000000    
   7.29171658         0.00000000    
   7.41850948         0.00000000    
   7.54530191         0.00000000    
   7.67209482         0.00000000    
   7.79888725         0.00000000    
   7.92567968         0.00000000    
   8.05247211         0.00000000    
   8.17926502         0.00000000    
   8.30605793         0.00000000    
   8.43285084         0.00000000    
   8.55964279         0.00000000    
   8.68643570         0.00000000    
   8.81322861         0.00000000    
   8.94002151         0.00000000    
   9.06681347         0.00000000    
   9.19360638         0.00000000    
   9.32039928         0.00000000    
   9.44719219         0.00000000    
   9.57398415         0.00000000    
   9.70077705         0.00000000    
   9.82756996         0.00000000    
   9.95436192         0.00000000    
   10.0811548         0.00000000    
   10.2079477         0.00000000    
   10.3347406         0.00000000    
   10.4615326         0.00000000    
   10.5883255         0.00000000    
   10.7151184         0.00000000    
   10.8419113         0.00000000    
   10.9687033         0.00000000    
   11.0954962         0.00000000    
   11.2222891         0.00000000    
   11.3490820         0.00000000    
   11.4758739         0.00000000    
   11.6026669         0.00000000    
   11.7294598         0.00000000    
   11.8562517         0.00000000    
   11.9830446         0.00000000    
   12.1098375         0.00000000    
   12.2366304         0.00000000    
   12.3634224         0.00000000    
   12.4902153         0.00000000    
   12.6170082         0.00000000    
   12.7438011         0.00000000    
   12.8705931         0.00000000    
   12.9973860         0.00000000    
   13.1241789         0.00000000    
   13.2509708         0.00000000    
   13.3777637         0.00000000    
   13.5045567         0.00000000    
   13.6313496         0.00000000    
   13.7581415         0.00000000    
   13.8849344         0.00000000    
   14.0117273         0.00000000    
   14.1385202         0.00000000    
   14.2653122         0.00000000    
   14.3921051         0.00000000    
   14.5188980         0.00000000    
   14.6456909         0.00000000    
   14.7724829         0.00000000    
   14.8992758         0.00000000    
   15.0260687         0.00000000    
   15.1528606         0.00000000    
   15.2796535         0.00000000    
   15.4064465         0.00000000    
   15.5332394         0.00000000    
   15.6600313         0.00000000    
   15.7868242         0.00000000    
   15.9136171         0.00000000    
   16.0404091         0.00000000    
   16.1672020         0.00000000    
   16.2939949         0.00000000    
   16.4207878         0.00000000    
   16.5475807         0.00000000    
   16.6743736         0.00000000    
   16.8011646         0.00000000    
   16.9279575         0.00000000    
   17.0547504         0.00000000    
   17.1815434         0.00000000    
   17.3083363         0.00000000    
   17.4351292         0.00000000    
   17.5619221         0.00000000    
   17.6887150         0.00000000    
   17.8155060         0.00000000    
   17.9422989         0.00000000    
   18.0690918         0.00000000    
   18.1958847         0.00000000    
   18.3226776         0.00000000    
   18.4494705         0.00000000    
   18.5762634         0.00000000    
   18.7030544         0.00000000    
   18.8298473         0.00000000    
   18.9566402         0.00000000    
   19.0834332         0.00000000    
   19.2102261         0.00000000    
   19.3370190         0.00000000    
   19.4638119         0.00000000    
   19.5906048         0.00000000    
   19.7173958        -5.93958067E-35
   19.8441887        -3.47375742E-35
   19.9709816         1.38923515E-34
   20.0977745         2.39056291E-34
   20.2245674         2.77445274E-34
   20.3513603         1.44110488E-34
   20.4781532         3.51937774E-34
   20.6049442         7.61619722E-35
   20.7317371        -6.22330173E-34
   20.8585300        -1.04176121E-33
   20.9853230        -2.23896207E-33
   21.1121159        -2.40690936E-33
   21.2389088        -2.18148572E-33
   21.3657017        -2.10084203E-33
   21.4924946        -3.95391447E-33
   21.6192856        -8.62314958E-33
   21.7460785        -1.50717860E-32
   21.8728714        -2.04877763E-32
   21.9996643        -2.58986150E-32
   22.1264572        -2.61738099E-32
   22.2532501        -2.79117166E-32
   22.3800430        -3.25229576E-32
   22.5068340        -9.13765773E-32
   22.6336269        -4.51325179E-31
   22.7604198        -9.06084023E-31
   22.8872128        -1.27262526E-30
   23.0140057        -1.74389778E-30
   23.1407986        -2.12389561E-30
   23.2675915        -2.14921406E-30
   23.3943844        -1.18365717E-30
   23.5211754        -8.29124126E-31
   23.6479683        -8.33382048E-31
   23.7747612        -9.74903199E-31
   23.9015541        -1.58064381E-30
   24.0283470        -3.28970163E-30
   24.1551399        -7.24765957E-30
   24.2819328        -1.81564157E-29
   24.4087238        -3.66218979E-29
   24.5355167        -6.15686882E-29
   24.6623096        -9.51619199E-29
   24.7891026        -1.29248039E-28
   24.9158955        -1.65135613E-28
   25.0426884        -1.87311505E-28
   25.1694813        -1.99020232E-28
   25.2962742        -1.97798410E-28
   25.4230652        -1.77335657E-28
   25.5498581        -1.35462233E-28
   25.6766510        -7.32623029E-29
   25.8034439         2.22059647E-30
   25.9302368         8.85868311E-29
   26.0570297         1.77560160E-28
   26.1838226         2.60969839E-28
   26.3106136         3.31154771E-28
   26.4374065         3.82999890E-28
   26.5641994         4.07213716E-28
   26.6909924         3.94033374E-28
   26.8177853         3.38992776E-28
   26.9445782         2.46866326E-28
   27.0713711         1.19908314E-28
   27.1981640        -4.14544444E-29
   27.3249550        -2.38099469E-28
   27.4517479        -4.74110989E-28
   27.5785408        -7.47812886E-28
   27.7053337        -1.05737261E-27
   27.8321266        -1.39142401E-27
   27.9589195        -1.73072886E-27
   28.0857124        -2.04167448E-27
   28.2125034        -2.28039350E-27
   28.3392963        -2.38945121E-27
   28.4660892        -2.30303704E-27
   28.5928822        -1.95530269E-27
   28.7196751        -1.28500646E-27
   28.8464680        -2.44277010E-28
   28.9732609         1.19355358E-27
   29.1000538         3.02256004E-27
   29.2268448         5.19761076E-27
   29.3536377         7.62133543E-27
   29.4804306         1.01412260E-26
   29.6072235         1.25453836E-26
   29.7340164         1.45620580E-26
   29.8608093         1.58689494E-26
   29.9876022         1.61079034E-26
   30.1143932         1.49026071E-26
   30.2411861         1.18917939E-26
   30.3679790         6.76413405E-27
   30.4947720        -6.98955125E-28
   30.6215649        -1.05762666E-26
   30.7483578        -2.27560394E-26
   30.8751507        -3.68890434E-26
   31.0019417        -5.23448469E-26
   31.1287346        -6.81813097E-26
   31.2555275        -8.31318817E-26
   31.3823204        -9.56161663E-26
   31.5091133        -1.03780988E-25
   31.6359062        -1.05571381E-25
   31.7626991        -9.88493990E-26
   31.8894920        -8.15467520E-26
   32.0162849        -5.18591428E-26
   32.1430779        -8.47099563E-27
   32.2698708         4.91916990E-26
   32.3966637         1.20697863E-25
   32.5234528         2.04353801E-25
   32.6502457         2.96973097E-25
   32.7770386         3.93706229E-25
   32.9038315         4.87953216E-25
   33.0306244         5.71394683E-25
   33.1574173         6.34171247E-25
   33.2842102         6.65233434E-25
   33.4110031         6.52881648E-25
   33.5377960         5.85507700E-25
   33.6645889         4.52528382E-25
   33.7913818         2.45491788E-25
   33.9181747        -4.06854642E-26
   34.0449677        -4.06410119E-25
   34.1717606        -8.46122741E-25
   34.2985535        -1.34711164E-24
   34.4253426        -1.88857048E-24
   34.5521355        -2.44101411E-24
   34.6789284        -2.96620319E-24
   34.8057213        -3.41769412E-24
   34.9325142        -3.74214906E-24
   35.0593071        -3.88148635E-24
   35.1861000        -3.77591704E-24
   35.3128929        -3.36788860E-24
   35.4396858        -2.60683070E-24
   35.5664787        -1.45459423E-24
   35.6932716         1.08678532E-25
   35.8200645         2.07855185E-24
   35.9468575         4.42054459E-24
   36.0736504         7.06518263E-24
   36.2004433         9.90431275E-24
   36.3272324         1.27892291E-23
   36.4540253         1.55313128E-23
   36.5808182         1.79054923E-23
   36.7076111         1.96571926E-23
   36.8344040         2.05128716E-23
   36.9611969         2.01943801E-23
   37.0879898         1.84368816E-23
   37.2147827         1.50100525E-23
   37.3415756         9.74166541E-24
   37.4683685         2.54265884E-24
   37.5951614        -6.56792534E-24
   37.7219543        -1.74395232E-23
   37.8487473        -2.97705566E-23
   37.9755402        -4.30943637E-23
   38.1023293        -5.67731960E-23
   38.2291222        -7.00026774E-23
   38.3559151        -8.18273300E-23
   38.4827080        -9.11700621E-23
   38.6095009        -9.68758426E-23
   38.7362938        -9.77692181E-23
   38.8630867        -9.27257400E-23
   38.9898796        -8.07546433E-23
   39.1166725        -6.10902973E-23
   39.2434654        -3.32877908E-23
   39.3702583         2.68241067E-24
   39.4970512         4.63471969E-23
   39.6238441         9.66574543E-23
   39.7506371         1.51937034E-22
   39.8774300         2.09860137E-22
   40.0042191         2.67466685E-22
   40.1310120         3.21217219E-22
   40.2578049         3.67098177E-22
   40.3845978         4.00772793E-22
   40.5113907         4.17783159E-22
   40.6381836         4.13797026E-22
   40.7649765         3.84892329E-22
   40.8917694         3.27869727E-22
   41.0185623         2.40578342E-22
   41.1453552         1.22238314E-22
   41.2721481        -2.62636502E-23
   41.3989410        -2.02123468E-22
   41.5257339        -4.00438922E-22
   41.6525269        -6.14124756E-22
   41.7793198        -8.33940784E-22
   41.9061089        -1.04865014E-21
   42.0329018        -1.24532566E-21
   42.1596947        -1.40980132E-21
   42.2864876        -1.52727591E-21
   42.4132805        -1.58304719E-21
   42.5400734        -1.56336207E-21
   42.6668663        -1.45634729E-21
   42.7936592        -1.25297749E-21
   42.9204521        -9.48030670E-22
   43.0472450        -5.40973798E-22
   43.1740379        -3.67115639E-23
   43.3008308         5.53848866E-22
   43.4276237         1.21351142E-21
   43.5544167         1.91879386E-21
   43.6812096         2.64029327E-21
   43.8079987         3.34344748E-21
   43.9347916         3.98965486E-21
   44.0615845         4.53780217E-21
   44.1883774         4.94611638E-21
   44.3151703         5.17428857E-21
   44.4419632         5.18579398E-21
   44.5687561         4.95027813E-21
   44.6955490         4.44590394E-21
   44.8223419         3.66148873E-21
   44.9491348         2.59830436E-21
   45.0759277         1.27140063E-21
   45.2027206        -2.89704485E-22
   45.3295135        -2.04103100E-21
   45.4563065        -3.92492798E-21
   45.5830994        -5.87175935E-21
   45.7098885        -7.80230277E-21
   45.8366814        -9.63096565E-21
   45.9634743        -1.12694537E-20
   46.0902672        -1.26311118E-20
   46.2170601        -1.36352210E-20
   46.3438530        -1.42113458E-20
   46.4706459        -1.43032776E-20
   46.5974388        -1.38723666E-20
   46.7242317        -1.28998695E-20
   46.8510246        -1.13881275E-20
   46.9778175        -9.36051556E-21
   47.1046104        -6.85987344E-21
   47.2314034        -3.94548108E-21
   47.3581963        -6.88869643E-22
   47.4849892         2.83139663E-21
   47.6117783         6.53568933E-21
   47.7385712         1.03492379E-20
   47.8653641         1.42077641E-20
   47.9921570         1.80619362E-20
   48.1189499         2.18800145E-20
   48.2457428         2.56482309E-20
   48.3725357         2.93683206E-20
   48.4993286         3.30514877E-20
   48.6261215         3.67093321E-20
   48.7529144         4.03414014E-20
   48.8797073         4.39198752E-20
   49.0065002         4.73721942E-20
   49.1332932         5.05633860E-20
   49.2600861         5.32785094E-20
   49.3868790         5.52082184E-20
   49.5136681         5.59381535E-20
   49.6404610         5.49472946E-20
   49.7672539         5.16117340E-20
   49.8940468         4.52235538E-20
   50.0208397         3.50194893E-20
   50.1476326         2.02244416E-20
   50.2744255         1.09425408E-22
   50.4012184        -2.59388605E-20
   50.5280113        -5.83347414E-20
   50.6548042        -9.72035060E-20
   50.7815971        -1.42286607E-19
   50.9083900        -1.92848513E-19
   51.0351830        -2.47591830E-19
   51.1619759        -3.04587702E-19
   51.2887688        -3.61233548E-19
   51.4155579        -4.14239307E-19
   51.5423508        -4.59658735E-19
   51.6691437        -4.92970177E-19
   51.7959366        -5.09209128E-19
   51.9227295        -5.03161197E-19
   52.0495224        -4.69616697E-19
   52.1763153        -4.03679132E-19
   52.3031082        -3.01127632E-19
   52.4299011        -1.58817359E-19
   52.5566940         2.48965742E-20
   52.6834869         2.49729162E-19
   52.8102798         5.13058051E-19
   52.9370728         8.09562027E-19
   53.0638657         1.13094098E-18
   53.1906586         1.46574399E-18
   53.3174477         1.79934572E-18
   53.4442406         2.11408236E-18
   53.5710335         2.38959699E-18
   53.6978264         2.60340519E-18
   53.8246193         2.73166575E-18
   53.9514122         2.75020100E-18
   54.0782051         2.63571300E-18
   54.2049980         2.36720087E-18
   54.3317909         1.92751260E-18
   54.4585838         1.30497316E-18
   54.5853767         4.95053069E-19
   54.7121696        -4.98062611E-19
   54.8389626        -1.66006133E-18
   54.9657555        -2.96537136E-18
   55.0925484        -4.37640252E-18
   55.2193375        -5.84329525E-18
   55.3461304        -7.30422980E-18
   55.4729233        -8.68644282E-18
   55.5997162        -9.90794622E-18
   55.7265091        -1.08800282E-17
   55.8533020        -1.15105392E-17
   55.9800949        -1.17078887E-17
   56.1068878        -1.13856812E-17
   56.2336807        -1.04679177E-17
   56.3604736        -8.89449942E-18
   56.4872665        -6.62684085E-18
   56.6140594        -3.65337759E-18
   56.7408524         5.37811832E-21
   56.8676453         4.29259671E-18
   56.9944382         9.11190151E-18
   57.1212273         1.43256532E-17
   57.2480202         1.97549110E-17
   57.3748131         2.51814276E-17
   57.5016060         3.03518573E-17
   57.6283989         3.49843401E-17
   57.7551918         3.87773834E-17
   57.8819847         4.14211751E-17
   58.0087776         4.26109321E-17
   58.1355705         4.20620250E-17
   58.2623634         3.95264616E-17
   58.3891563         3.48100531E-17
   58.5159492         2.77895727E-17
   58.6427422         1.84291109E-17
   58.7695351         6.79471674E-18
   58.8963280        -6.93363097E-18
   59.0231171        -2.24536440E-17
   59.1499100        -3.93368884E-17
   59.2767029        -5.70301725E-17
   59.4034958        -7.48630086E-17
   59.5302887        -9.20616089E-17
   59.6570816        -1.07769339E-16
   59.7838745        -1.21074122E-16
   59.9106674        -1.31041953E-16
   60.0374603        -1.36756209E-16
   60.1642532        -1.37361242E-16
   60.2910461        -1.32109280E-16
   60.4178391        -1.20408804E-16
   60.5446320        -1.01871925E-16
   60.6714249        -7.63591864E-17
   60.7982178        -4.40189722E-17
   60.9250069        -5.31908525E-18
   61.0517998         3.89319040E-17
   61.1785927         8.75758018E-17
   61.3053856         1.39110444E-16
   61.4321785         1.91711217E-16
   61.5589714         2.43269848E-16
   61.6857643         2.91450564E-16
   61.8125572         3.33763274E-16
   61.9393501         3.67652851E-16
   62.0661430         3.90601806E-16
   62.1929359         4.00244455E-16
   62.3197289         3.94487913E-16
   62.4465218         3.71636023E-16
   62.5733147         3.30510244E-16
   62.7001076         2.70563393E-16
   62.8268967         1.91978429E-16
   62.9536896         9.57476448E-17
   63.0804825        -1.62740688E-17
   63.2072754        -1.41346916E-16
   63.3340683        -2.75860023E-16
   63.4608612        -4.15383078E-16
   63.5876541        -5.54761211E-16
   63.7144470        -6.88249104E-16
   63.8412399        -8.09686894E-16
   63.9680328        -9.12713788E-16
   64.0948257        -9.91011502E-16
   64.2216187        -1.03857632E-15
   64.3484116        -1.05000269E-15
   64.4752045        -1.02077698E-15
   64.6019974        -9.47560194E-16
   64.7287903        -8.28455768E-16
   64.8555832        -6.63240986E-16
   64.9823761        -4.53553691E-16
   65.1091690        -2.03021132E-16
   65.2359619         8.26829623E-17
   65.3627548         3.95860901E-16
   65.4895477         7.26900276E-16
   65.6163330         1.06447393E-15
   65.7431259         1.39583301E-15
   65.8699188         1.70718643E-15
   65.9967117         1.98416367E-15
   66.1235046         2.21234460E-15
   66.2502975         2.37784383E-15
   66.3770905         2.46793108E-15
   66.5038834         2.47165866E-15
   66.6306763         2.38048001E-15
   66.7574692         2.18882250E-15
   66.8842621         1.89459502E-15
   67.0110550         1.49959613E-15
   67.1378479         1.00980017E-15
   67.2646408         4.35497252E-16
   67.3914337        -2.08729234E-16
   67.5182266        -9.04207883E-16
   67.6450195        -1.62856939E-15
   67.7718124        -2.35631818E-15
   67.8986053        -3.05959354E-15
   68.0253983        -3.70907554E-15
   68.1521912        -4.27505491E-15
   68.2789841        -4.72857964E-15
   68.4057770        -5.04269588E-15
   68.5325699        -5.19369094E-15
   68.6593628        -5.16231853E-15
   68.7861557        -4.93493465E-15
   68.9129486        -4.50450300E-15
   69.0397415        -3.87140728E-15
   69.1665344        -3.04402783E-15
   69.2933273        -2.03903150E-15
   69.4201126        -8.81350381E-16
   69.5469055         3.96179941E-16
   69.6736984         1.75354603E-15
   69.8004913         3.14460918E-15
   69.9272842         4.51852436E-15
   70.0540771         5.82142494E-15
   70.1808701         6.99838145E-15
   70.3076630         7.99554464E-15
   70.4344559         8.76240253E-15
   70.5612488         9.25406280E-15
   70.6880417         9.43347116E-15
   70.8148346         9.27347087E-15
   70.9416275         8.75859173E-15
   71.0684204         7.88648576E-15
   71.1952133         6.66891443E-15
   71.3220062         5.13222684E-15
   71.4487991         3.31723852E-15
   71.5755920         1.27852688E-15
   71.7023849        -9.16930106E-16
   71.8291779        -3.19171332E-15
   71.9559708        -5.46050928E-15
   72.0827637        -7.63315938E-15
   72.2095566        -9.61812264E-15
   72.3363495        -1.13262493E-14
   72.4631424        -1.26746876E-14
   72.5899353        -1.35908037E-14
   72.7167282        -1.40159194E-14
   72.8435211        -1.39087130E-14
   72.9703140        -1.32480917E-14
   73.0971069        -1.20353760E-14
   73.2238922        -1.02956821E-14
   73.3506851        -8.07832686E-15
   73.4774780        -5.45622118E-15
   73.6042709        -2.52416898E-15
   73.7310638         6.03901881E-16
   73.8578568         3.79878310E-15
   73.9846497         6.92075554E-15
   74.1114426         9.82516121E-15
   74.2382355         1.23686377E-14
   74.3650284         1.44157079E-14
   74.4918213         1.58454877E-14
   74.6186142         1.65583252E-14
   74.7454071         1.64818551E-14
   74.8722000         1.55763396E-14
   74.9989929         1.38389471E-14
   75.1257858         1.13066566E-14
   75.2525787         8.05759573E-15
   75.3793716         4.21059612E-15
   75.5061646        -7.71282063E-17
   75.6329575        -4.61425391E-15
   75.7597504        -9.18153391E-15
   75.8865433        -1.35397471E-14
   76.0133362        -1.74392632E-14
   76.1401291        -2.06308681E-14
   76.2669220        -2.28775112E-14
   76.3937149        -2.39665465E-14
   76.5205078        -2.37218743E-14
   76.6473007        -2.20155857E-14
   76.7740936        -1.87784291E-14
   76.9008865        -1.40086231E-14
   77.0276718        -7.77832558E-15
   77.1544647        -2.37543031E-16
   77.2812576         8.38514930E-15
   77.4080505         1.77852897E-14
   77.5348434         2.75888084E-14
   77.6616364         3.73619762E-14
   77.7884293         4.66247897E-14
   77.9152222         5.48678060E-14
   78.0420151         6.15716787E-14
   78.1688080         6.62288895E-14
   78.2956009         6.83673428E-14
   78.4223938         6.75741811E-14
   78.5491867         6.35197935E-14
   78.6759796         5.59801906E-14
   78.8027725         4.48572386E-14
   78.9295654         3.01954879E-14
   79.0563583         1.21945546E-14
   79.1831512        -8.78359783E-15
   79.3099442        -3.22135778E-14
   79.4367371        -5.74118186E-14
   79.5635300        -8.35489786E-14
   79.6903229        -1.09669177E-13
   79.8171158        -1.34716159E-13
   79.9439087        -1.57565841E-13
   80.0707016        -1.77064282E-13
   80.1974945        -1.92070575E-13
   80.3242874        -2.01502592E-13
   80.4510803        -2.04384618E-13
   80.5778732        -1.99895479E-13
   80.7046585        -1.87413697E-13
   80.8314514        -1.66560084E-13
   80.9582443        -1.37233988E-13
   81.0850372        -9.96419676E-14
   81.2118301        -5.43175531E-14
   81.3386230        -2.13009876E-15
   81.4654160         5.57182677E-14
   81.5922089         1.17708252E-13
   81.7190018         1.82032097E-13
   81.8457947         2.46635259E-13
   81.9725876         3.09270540E-13
   82.0993805         3.67563076E-13
   82.2261734         4.19085827E-13
   82.3529663         4.61441649E-13
   82.4797592         4.92351060E-13
   82.6065521         5.09742585E-13
   82.7333450         5.11841546E-13
   82.8601379         4.97254690E-13
   82.9869308         4.65048573E-13
   83.1137238         4.14815046E-13
   83.2405167         3.46724927E-13
   83.3673096         2.61563422E-13
   83.4941025         1.60747406E-13
   83.6208954         4.63212266E-14
   83.7476883        -7.90691500E-14
   83.8744812        -2.12224661E-13
   84.0012741        -3.49463622E-13
   84.1280670        -4.86713805E-13
   84.2548599        -6.19622355E-13
   84.3816528        -7.43683110E-13
   84.5084381        -8.54375978E-13
   84.6352310        -9.47315251E-13
   84.7620239        -1.01840097E-12
   84.8888168        -1.06397042E-12
   85.0156097        -1.08094306E-12
   85.1424026        -1.06695197E-12
   85.2691956        -1.02046138E-12
   85.3959885        -9.40859586E-13
   85.5227814        -8.28527947E-13
   85.6495743        -6.84879670E-13
   85.7763672        -5.12366787E-13
   85.9031601        -3.14452159E-13
   86.0299530        -9.55495787E-14
   86.1567459         1.39073228E-13
   86.2835388         3.83420997E-13
   86.4103317         6.30926355E-13
   86.5371246         8.74631585E-13
   86.6639175         1.10738794E-12
   86.7907104         1.32207049E-12
   86.9175034         1.51179676E-12
   87.0442963         1.67014915E-12
   87.1710892         1.79138475E-12
   87.2978821         1.87063299E-12
   87.4246750         1.90406913E-12
   87.5514679         1.88906052E-12
   87.6782608         1.82427727E-12
   87.8050537         1.70976178E-12
   87.9318466         1.54696080E-12
   88.0586395         1.33870606E-12
   88.1854324         1.08915730E-12
   88.3122177         8.03694784E-13
   88.4390106         4.88779590E-13
   88.5658035         1.51766972E-13
   88.6925964        -1.99300673E-13
   88.8193893        -5.55930735E-13
   88.9461823        -9.09429487E-13
   89.0729752        -1.25115987E-12
   89.1997681        -1.57279485E-12
   89.3265610        -1.86655942E-12
   89.4533539        -2.12545476E-12
   89.5801468        -2.34344792E-12
   89.7069397        -2.51562985E-12
   89.8337326        -2.63833443E-12
   89.9605255        -2.70919983E-12
   90.0873184        -2.72719672E-12
   90.2141113        -2.69259550E-12
   90.3409042        -2.60688823E-12
   90.4676971        -2.47267831E-12
   90.5944901        -2.29351130E-12
   90.7212830        -2.07369517E-12
   90.8480759        -1.81808529E-12
   90.9748688        -1.53186350E-12
   91.1016617        -1.22031508E-12
   91.2284546        -8.88616437E-13
   91.3552475        -5.41638240E-13
   91.4820404        -1.83788369E-13
   91.6088333         1.81110647E-13
   91.7356262         5.49894223E-13
   91.8624191         9.20077708E-13
   91.9892120         1.28981645E-12
   92.1159973         1.65781841E-12
   92.2427902         2.02319108E-12
   92.3695831         2.38525302E-12
   92.4963760         2.74329257E-12
   92.6231689         3.09630988E-12
   92.7499619         3.44273113E-12
   92.8767548         3.78013289E-12
   93.0035477         4.10497634E-12
   93.1303406         4.41237671E-12
   93.2571335         4.69592637E-12
   93.3839264         4.94758097E-12
   93.5107193         5.15763257E-12
   93.6375122         5.31477249E-12
   93.7643051         5.40626701E-12
   93.8910980         5.41822793E-12
   94.0178909         5.33601375E-12
   94.1446838         5.14472145E-12
   94.2714767         4.82978284E-12
   94.3982697         4.37764712E-12
   94.5250626         3.77652683E-12
   94.6518555         3.01718459E-12
   94.7786484         2.09373339E-12
   94.9054413         1.00442126E-12
   95.0322342        -2.47634920E-13
   95.1590271        -1.65380871E-12
   95.2858200        -3.19943746E-12
   95.4126129        -4.86345512E-12
   95.5394058        -6.61821379E-12
   95.6661987        -8.42951490E-12
   95.7929916        -1.02568821E-11
   95.9197769        -1.20540826E-11
   96.0465698        -1.37699028E-11
   96.1733627        -1.53491907E-11
   96.3001556        -1.67341332E-11
   96.4269485        -1.78657610E-11
   96.5537415        -1.86856659E-11
   96.6805344        -1.91378233E-11
   96.8073273        -1.91705922E-11
   96.9341202        -1.87387085E-11
   97.0609131        -1.78052902E-11
   97.1877060        -1.63437579E-11
   97.3144989        -1.43396059E-11
   97.4412918        -1.17919667E-11
   97.5680847        -8.71487604E-12
   97.6948776        -5.13820323E-12
   97.8216705        -1.10815860E-12
   97.9484634         3.31262600E-12
   98.0752563         8.04553212E-12