  -4.50000000         0.00000000    
  -4.37320757         0.00000000    
  -4.24641466         0.00000000    
  -4.11962223         0.00000000    
  -3.99282932         0.00000000    
  -3.86603665         0.00000000    
  -3.73924398         0.00000000    
  -3.61245155         0.00000000    
  -3.48565888         0.00000000    
  -3.35886621         0.00000000    
  -3.23207355         0.00000000    
  -3.10528088         0.00000000    
  -2.97848821         0.00000000    
  -2.85169554         0.00000000    
  -2.72490287         0.00000000    
  -2.59811020         0.00000000    
  -2.47131753         0.00000000    
  -2.34452486         0.00000000    
  -2.21773219         0.00000000    
  -2.09093952         0.00000000    
  -1.96414697         0.00000000    
  -1.83735430         0.00000000    
  -1.71056163         0.00000000    
  -1.58376896         0.00000000    
  -1.45697629         0.00000000    
  -1.33018374         0.00000000    
  -1.20339108         0.00000000    
  -1.07659841         0.00000000    
 -0.949805737         0.00000000    
 -0.823013067         0.00000000    
 -0.696220458         0.00000000    
 -0.569427788         0.00000000    
 -0.442635119         0.00000000    
 -0.315842479         0.00000000    
 -0.189049825         0.00000000    
  -6.22571707E-02     0.00000000    
   6.45354837E-02     0.00000000    
  0.191328138         0.00000000    
  0.318120778         0.00000000    
  0.444913447         0.00000000    
  0.571706116         0.00000000    
  0.698498726         0.00000000    
  0.825291395         0.00000000    
  0.952084064         0.00000000    
   1.07887673         0.00000000    
   1.20566940         0.00000000    
   1.33246195         0.00000000    
   1.45925462         0.00000000    
   1.58604729         0.00000000    
   1.71283996         0.00000000    
   1.83963263         0.00000000    
   1.96642530         0.00000000    
   2.09321785         0.00000000    
   2.22001052         0.00000000    
   2.34680319         0.00000000    
   2.47359586         0.00000000    
   2.60038853         0.00000000    
   2.72718120         0.00000000    
   2.85397387         0.00000000    
   2.98076653         0.00000000    
   3.10755920         0.00000000    
   3.23435187         0.00000000    
   3.36114454         0.00000000    
   3.48793697         0.00000000    
   3.61472964         0.00000000    
   3.74152231         0.00000000    
   3.86831498         0.00000000    
   3.99510765         0.00000000    
   4.12190056         0.00000000    
   4.24869299         0.00000000    
   4.37548542         0.00000000    
   4.50227833         0.00000000    
   4.62907076         0.00000000    
   4.75586367         0.00000000    
   4.88265610         0.00000000    
   5.00944901         0.00000000    
   5.13624144         0.00000000    
   5.26303434         0.00000000    
   5.38982677         0.00000000    
   5.51661968         0.00000000    
   5.64341211         0.00000000    
   5.77020502         0.00000000    
   5.89699745         0.00000000    
   6.02379036         0.00000000    
   6.15058279         0.00000000    
   6.27737522         0.00000000    
   6.40416813         0.00000000    
   6.53096056         0.00000000    
   6.65775347         0.00000000    
   6.78454590         0.00000000    
   6.91133881         0.00000000    
   7.03813124         0.00000000    
   7.16492414         0.00000000    
   7.29171658         0.00000000    
   7.41850948         0.00000000    
   7.54530191         0.00000000    
   7.67209482         0.00000000    
   7.79888725         0.00000000    
   7.92567968         0.00000000    
   8.05247211         0.00000000    
   8.17926502         0.00000000    
   8.30605793         0.00000000    
   8.43285084         0.00000000    
   8.55964279         0.00000000    
   8.68643570         0.00000000    
   8.81322861         0.00000000    
   8.94002151         0.00000000    
   9.06681347         0.00000000    
   9.19360638         0.00000000    
   9.32039928         0.00000000    
   9.44719219         0.00000000    
   9.57398415         0.00000000    
   9.70077705         0.00000000    
   9.82756996         0.00000000    
   9.95436192         0.00000000    
   10.0811548         0.00000000    
   10.2079477         0.00000000    
   10.3347406         0.00000000    
   10.4615326         0.00000000    
   10.5883255         0.00000000    
   10.7151184         0.00000000    
   10.8419113         0.00000000    
   10.9687033         0.00000000    
   11.0954962         0.00000000    
   11.2222891         0.00000000    
   11.3490820         0.00000000    
   11.4758739         0.00000000    
   11.6026669         0.00000000    
   11.7294598         0.00000000    
   11.8562517         0.00000000    
   11.9830446         0.00000000    
   12.1098375         0.00000000    
   12.2366304         0.00000000    
   12.3634224         0.00000000    
   12.4902153         0.00000000    
   12.6170082         0.00000000    
   12.7438011         0.00000000    
   12.8705931         0.00000000    
   12.9973860         0.00000000    
   13.1241789         0.00000000    
   13.2509708         0.00000000    
   13.3777637         0.00000000    
   13.5045567         0.00000000    
   13.6313496         0.00000000    
   13.7581415         0.00000000    
   13.8849344         0.00000000    
   14.0117273         0.00000000    
   14.1385202         0.00000000    
   14.2653122         0.00000000    
   14.3921051         0.00000000    
   14.5188980         0.00000000    
   14.6456909         0.00000000    
   14.7724829         0.00000000    
   14.8992758         0.00000000    
   15.0260687         0.00000000    
   15.1528606         0.00000000    
   15.2796535         0.00000000    
   15.4064465         0.00000000    
   15.5332394         0.00000000    
   15.6600313         0.00000000    
   15.7868242         0.00000000    
   15.9136171         0.00000000    
   16.0404091         0.00000000    
   16.1672020         0.00000000    
   16.2939949         0.00000000    
   16.4207878         0.00000000    
   16.5475807         0.00000000    
   16.6743736         0.00000000    
   16.8011646         0.00000000    
   16.9279575         0.00000000    
   17.0547504         0.00000000    
   17.1815434         0.00000000    
   17.3083363         0.00000000    
   17.4351292         0.00000000    
   17.5619221         0.00000000    
   17.6887150         0.00000000    
   17.8155060         0.00000000    
   17.9422989         0.00000000    
   18.0690918         0.00000000    
   18.1958847         0.00000000    
   18.3226776         0.00000000    
   18.4494705         0.00000000    
   18.5762634         0.00000000    
   18.7030544         0.00000000    
   18.8298473         0.00000000    
   18.9566402         0.00000000    
   19.0834332         0.00000000    
   19.2102261         0.00000000    
   19.3370190         0.00000000    
   19.4638119         0.00000000    
   19.5906048         0.00000000    
   19.7173958        -6.15116621E-35
   19.8441887        -4.67051181E-34
   19.9709816        -1.39932335E-33
   20.0977745        -2.77699722E-33
   20.2245674        -3.63471449E-33
   20.3513603        -3.45428603E-33
   20.4781532        -2.02357312E-33
   20.6049442         8.36022970E-34
   20.7317371         4.72727404E-33
   20.8585300         9.49362445E-33
   20.9853230         1.13165392E-32
   21.1121159         1.19476092E-32
   21.2389088         8.38711105E-33
   21.3657017        -1.24970450E-33
   21.4924946        -1.37702566E-32
   21.6192856        -2.29823736E-32
   21.7460785        -2.43210604E-32
   21.8728714        -1.19819719E-32
   21.9996643         2.97295966E-33
   22.1264572         1.23920644E-32
   22.2532501         8.16241898E-33
   22.3800430        -1.05060050E-32
   22.5068340         7.00113621E-32
   22.6336269         7.79104349E-31
   22.7604198         2.11668710E-30
   22.8872128         4.32200685E-30
   23.0140057         7.25272266E-30
   23.1407986         1.07915189E-29
   23.2675915         1.36693284E-29
   23.3943844         1.58586804E-29
   23.5211754         1.59021748E-29
   23.6479683         1.38067646E-29
   23.7747612         9.79447923E-30
   23.9015541         4.64199559E-30
   24.0283470        -1.01578163E-30
   24.1551399        -6.75870959E-30
   24.2819328        -1.81884011E-29
   24.4087238        -3.60889901E-29
   24.5355167        -6.16921222E-29
   24.6623096        -8.42912430E-29
   24.7891026        -9.81355737E-29
   24.9158955        -1.09982504E-28
   25.0426884        -1.17609223E-28
   25.1694813        -1.15446247E-28
   25.2962742        -1.04655250E-28
   25.4230652        -9.02646832E-29
   25.5498581        -8.05547523E-29
   25.6766510        -7.98907639E-29
   25.8034439        -9.16324125E-29
   25.9302368        -1.17268719E-28
   26.0570297        -1.58323346E-28
   26.1838226        -2.06711626E-28
   26.3106136        -2.59453867E-28
   26.4374065        -3.09201071E-28
   26.5641994        -3.38455080E-28
   26.6909924        -3.40221134E-28
   26.8177853        -3.04000025E-28
   26.9445782        -2.22508272E-28
   27.0713711        -8.83171227E-29
   27.1981640         1.03920375E-28
   27.3249550         3.61768631E-28
   27.4517479         6.97024525E-28
   27.5785408         1.12143819E-27
   27.7053337         1.64844234E-27
   27.8321266         2.28726175E-27
   27.9589195         3.04364859E-27
   28.0857124         3.90887704E-27
   28.2125034         4.85240207E-27
   28.3392963         5.82191058E-27
   28.4660892         6.72590743E-27
   28.5928822         7.44403740E-27
   28.7196751         7.81243852E-27
   28.8464680         7.63625214E-27
   28.9732609         6.69401942E-27
   29.1000538         4.75139166E-27
   29.2268448         1.58031074E-27
   29.3536377        -3.02024161E-27
   29.4804306        -9.19778227E-27
   29.6072235        -1.70139579E-26
   29.7340164        -2.64079262E-26
   29.8608093        -3.71608892E-26
   29.9876022        -4.88572651E-26
   30.1143932        -6.08514052E-26
   30.2411861        -7.22414781E-26
   30.3679790        -8.18562011E-26
   30.4947720        -8.82610429E-26
   30.6215649        -8.97889371E-26
   30.7483578        -8.46018747E-26
   30.8751507        -7.07862516E-26
   31.0019417        -4.64874037E-26
   31.1287346        -1.00809868E-26
   31.2555275         3.96188318E-26
   31.3823204         1.03121278E-25
   31.5091133         1.80000395E-25
   31.6359062         2.68632998E-25
   31.7626991         3.65951489E-25
   31.8894920         4.67236102E-25
   32.0162849         5.65974321E-25
   32.1430779         6.53818765E-25
   32.2698708         7.20673396E-25
   32.3966637         7.54940133E-25
   32.5234528         7.43951941E-25
   32.6502457         6.74612991E-25
   32.7770386         5.34255949E-25
   32.9038315         3.11711386E-25
   33.0306244        -1.42749128E-27
   33.1574173        -4.09387946E-25
   33.2842102        -9.10709544E-25
   33.4110031        -1.49673212E-24
   33.5377960        -2.15019008E-24
   33.6645889        -2.84404610E-24
   33.7913818        -3.54070869E-24
   33.9181747        -4.19180254E-24
   34.0449677        -4.73864368E-24
   34.1717606        -5.11357309E-24
   34.2985535        -5.24229389E-24
   34.4253426        -5.04727919E-24
   34.5521355        -4.45231320E-24
   34.6789284        -3.38812722E-24
   34.8057213        -1.79901623E-24
   34.9325142         3.49770646E-25
   35.0593071         3.06417399E-24
   35.1861000         6.31344000E-24
   35.3128929         1.00227216E-23
   35.4396858         1.40667973E-23
   35.5664787         1.82656104E-23
   35.6932716         2.23823536E-23
   35.8200645         2.61248928E-23
   35.9468575         2.91511683E-23
   36.0736504         3.10792674E-23
   36.2004433         3.15025292E-23
   36.3272324         3.00099633E-23
   36.4540253         2.62118852E-23
   36.5808182         1.97703137E-23
   36.7076111         1.04333308E-23
   36.8344040        -1.92801234E-24
   36.9611969        -1.72818141E-23
   37.0879898        -3.53988489E-23
   37.2147827        -5.58200564E-23
   37.3415756        -7.78309859E-23
   37.4683685        -1.00446429E-22
   37.5951614        -1.22408317E-22
   37.7219543        -1.42200471E-22
   37.8487473        -1.58082285E-22
   37.9755402        -1.68144654E-22
   38.1023293        -1.70388238E-22
   38.2291222        -1.62825372E-22
   38.3559151        -1.43604416E-22
   38.4827080        -1.11152938E-22
   38.6095009        -6.43367123E-23
   38.7362938        -2.62706340E-24
   38.8630867         7.37310360E-23
   38.9898796         1.63560199E-22
   39.1166725         2.64612700E-22
   39.2434654         3.73466442E-22
   39.3702583         4.85467374E-22
   39.4970512         5.94732864E-22
   39.6238441         6.94228141E-22
   39.7506371         7.75926363E-22
   39.8774300         8.31062767E-22
   40.0042191         8.50483841E-22
   40.1310120         8.25097767E-22
   40.2578049         7.46412414E-22
   40.3845978         6.07158698E-22
   40.5113907         4.01970044E-22
   40.6381836         1.28101166E-22
   40.7649765        -2.13855521E-22
   40.8917694        -6.19291202E-22
   41.0185623        -1.07898925E-21
   41.1453552        -1.57867289E-21
   41.2721481        -2.09874321E-21
   41.3989410        -2.61426555E-21
   41.5257339        -3.09525472E-21
   41.6525269        -3.50729709E-21
   41.7793198        -3.81256026E-21
   41.9061089        -3.97119799E-21
   42.0329018        -3.94314857E-21
   42.1596947        -3.69033342E-21
   42.2864876        -3.17917983E-21
   42.4132805        -2.38341976E-21
   42.5400734        -1.28705274E-21
   42.6668663         1.12653679E-22
   42.7936592         1.80228782E-21
   42.9204521         3.74971513E-21
   43.0472450         5.90201930E-21
   43.1740379         8.18415245E-21
   43.3008308         1.04985464E-20
   43.4276237         1.27258538E-20
   43.5544167         1.47270542E-20
   43.6812096         1.63470325E-20
   43.8079987         1.74197726E-20
   43.9347916         1.77751792E-20
   44.0615845         1.72474654E-20
   44.1883774         1.56850020E-20
   44.3151703         1.29613531E-20
   44.4419632         8.98713722E-21
   44.5687561         3.72223400E-21
   44.6955490        -2.81224909E-21
   44.8223419        -1.05229515E-20
   44.9491348        -1.92349510E-20
   45.0759277        -2.86850081E-20
   45.2027206        -3.85182759E-20
   45.3295135        -4.82891724E-20
   45.4563065        -5.74674619E-20
   45.5830994        -6.54498840E-20
   45.7098885        -7.15780645E-20
   45.8366814        -7.51627357E-20
   45.9634743        -7.55145007E-20
   46.0902672        -7.19802229E-20
   46.2170601        -6.39847727E-20
   46.3438530        -5.10765481E-20
   46.4706459        -3.29750026E-20
   46.5974388        -9.61837377E-21
   46.7242317         1.87912041E-20
   46.8510246         5.17480314E-20
   46.9778175         8.84117199E-20
   47.1046104         1.27587814E-19
   47.2314034         1.67723510E-19
   47.3581963         2.06921531E-19
   47.4849892         2.42974637E-19
   47.6117783         2.73423026E-19
   47.7385712         2.95635385E-19
   47.8653641         3.06914458E-19
   47.9921570         3.04624925E-19
   48.1189499         2.86342269E-19
   48.2457428         2.50017382E-19
   48.3725357         1.94151904E-19
   48.4993286         1.17976751E-19
   48.6261215         2.16251895E-20
   48.7529144        -9.37100379E-20
   48.8797073        -2.25645979E-19
   49.0065002        -3.70516970E-19
   49.1332932        -5.23332513E-19
   49.2600861        -6.77795671E-19
   49.3868790        -8.26392878E-19
   49.5136681        -9.60560798E-19
   49.6404610        -1.07093937E-18
   49.7672539        -1.14770793E-18
   49.8940468        -1.18100495E-18
   50.0208397        -1.16142258E-18
   50.1476326        -1.08056465E-18
   50.2744255        -9.31649181E-19
   50.4012184        -7.10130627E-19
   50.5280113        -4.14316907E-19
   50.6548042        -4.59462221E-20
   50.7815971         3.89313253E-19
   50.9083900         8.81477058E-19
   51.0351830         1.41601285E-18
   51.1619759         1.97379997E-18
   51.2887688         2.53131330E-18
   51.4155579         3.06105920E-18
   51.5423508         3.53228455E-18
   51.6691437         3.91196873E-18
   51.7959366         4.16608978E-18
   51.9227295         4.26114565E-18
   52.0495224         4.16590697E-18
   52.1763153         3.85333196E-18
   52.3031082         3.30258208E-18
   52.4299011         2.50106495E-18
   52.5566940         1.44637969E-18
   52.6834869         1.48078435E-19
   52.8102798        -1.37089077E-18
   52.9370728        -3.07316892E-18
   53.0638657        -4.90652810E-18
   53.1906586        -6.80406843E-18
   53.3174477        -8.68517806E-18
   53.4442406        -1.04572934E-17
   53.5710335        -1.20185364E-17
   53.6978264        -1.32612206E-17
   53.8246193        -1.40761374E-17
   53.9514122        -1.43576237E-17
   54.0782051        -1.40091755E-17
   54.2049980        -1.29495067E-17
   54.3317909        -1.11187542E-17
   54.4585838        -8.48456856E-18
   54.5853767        -5.04781633E-18
   54.7121696        -8.47485829E-19
   54.8389626         4.03549492E-18
   54.9657555         9.47590565E-18
   55.0925484         1.53036635E-17
   55.2193375         2.13052973E-17
   55.3461304         2.72277583E-17
   55.4729233         3.27846121E-17
   55.5997162         3.76647394E-17
   55.7265091         4.15434522E-17
   55.8533020         4.40958040E-17
   55.9800949         4.50118271E-17
   56.1068878         4.40131290E-17
   56.2336807         4.08704382E-17
   56.3604736         3.54211311E-17
   56.4872665         2.75861260E-17
   56.6140594         1.73851345E-17
   56.7408524         4.94941038E-18
   56.8676453        -9.46904087E-18
   56.9944382        -2.54926477E-17
   57.1212273        -4.26186513E-17
   57.2480202        -6.02253263E-17
   57.3748131        -7.75847107E-17
   57.5016060        -9.38818232E-17
   57.6283989        -1.08240415E-16
   57.7551918        -1.19755159E-16
   57.8819847        -1.27529042E-16
   58.0087776        -1.30715580E-16
   58.1355705        -1.28563786E-16
   58.2623634        -1.20464986E-16
   58.3891563        -1.05998404E-16
   58.5159492        -8.49746828E-17
   58.6427422        -5.74735810E-17
   58.7695351        -2.38746791E-17
   58.8963280         1.51221735E-17
   59.0231171         5.84882206E-17
   59.1499100         1.04871262E-16
   59.2767029         1.52616239E-16
   59.4034958         1.99802380E-16
   59.5302887         2.44296769E-16
   59.6570816         2.83823456E-16
   59.7838745         3.16048560E-16
   59.9106674         3.38676568E-16
   60.0374603         3.49557659E-16
   60.1642532         3.46800329E-16
   60.2910461         3.28885847E-16
   60.4178391         2.94779509E-16
   60.5446320         2.44032442E-16
   60.6714249         1.76869731E-16
   60.7982178         9.42578330E-17
   60.9250069        -2.05291546E-18
   61.0517998        -1.09516483E-16
   61.1785927        -2.24812709E-16
   61.3053856        -3.43906653E-16
   61.4321785        -4.62145252E-16
   61.5589714        -5.74392788E-16
   61.6857643        -6.75202202E-16
   61.8125572        -7.59019289E-16
   61.9393501        -8.20413190E-16
   62.0661430        -8.54326113E-16
   62.1929359        -8.56334428E-16
   62.3197289        -8.22907808E-16
   62.4465218        -7.51658573E-16
   62.5733147        -6.41563824E-16
   62.7001076        -4.93154282E-16
   62.8268967        -3.08652056E-16
   62.9536896        -9.20487512E-17
   63.0804825         1.50885023E-16
   63.2072754         4.12668523E-16
   63.3340683         6.84260320E-16
   63.4608612         9.55290958E-16
   63.5876541         1.21437917E-15
   63.7144470         1.44951954E-15
   63.8412399         1.64853978E-15
   63.9680328         1.79960641E-15
   64.0948257         1.89176698E-15
   64.2216187         1.91550720E-15
   64.3484116         1.86329397E-15
   64.4752045         1.73009010E-15
   64.6019974         1.51380479E-15
   64.7287903         1.21565946E-15
   64.8555832         8.40446366E-16
   64.9823761         3.96649065E-16
   65.1091690        -1.03577181E-16
   65.2359619        -6.44594085E-16
   65.3627548        -1.20763383E-15
   65.4895477        -1.77132123E-15
   65.6163330        -2.31235611E-15
   65.7431259        -2.80634213E-15
   65.8699188        -3.22873332E-15
   65.9967117        -3.55587481E-15
   66.1235046        -3.76609441E-15
   66.2502975        -3.84080314E-15
   66.3770905        -3.76555908E-15
   66.5038834        -3.53104213E-15
   66.6306763        -3.13388807E-15
   66.7574692        -2.57733745E-15
   66.8842621        -1.87165419E-15
   67.0110550        -1.03426651E-15
   67.1378479        -8.96153447E-17
   67.2646408         9.31321090E-16
   67.3914337         1.99182317E-15
   67.5182266         3.05054469E-15
   67.6450195         4.06292779E-15
   67.7718124         4.98285851E-15
   67.8986053         5.76455387E-15
   68.0253983         6.36455009E-15
   68.1521912         6.74380104E-15
   68.2789841         6.86970656E-15
   68.4057770         6.71805929E-15
   68.5325699         6.27475528E-15
   68.6593628         5.53722124E-15
   68.7861557         4.51542676E-15
   68.9129486         3.23245327E-15
   69.0397415         1.72450625E-15
   69.1665344         4.03706259E-17
   69.2933273        -1.75974451E-15
   69.4201126        -3.60595521E-15
   69.5469055        -5.42101086E-15
   69.6736984        -7.12312781E-15
   69.8004913        -8.62923455E-15
   69.9272842        -9.85855379E-15
   70.0540771        -1.07363501E-14
   70.1808701        -1.11977180E-14
   70.3076630        -1.11912509E-14
   70.4344559        -1.06824060E-14
   70.5612488        -9.65636618E-15
   70.6880417        -8.12031174E-15
   70.8148346        -6.10484597E-15
   70.9416275        -3.66454829E-15
   71.0684204        -8.77475682E-16
   71.1952133         2.15639278E-15
   71.3220062         5.31781938E-15
   71.4487991         8.47203963E-15
   71.5755920         1.14734763E-14
   71.7023849         1.41713330E-14
   71.8291779         1.64158780E-14
   71.9559708         1.80651816E-14
   72.0827637         1.89921050E-14
   72.2095566         1.90911841E-14
   72.3363495         1.82851713E-14
   72.4631424         1.65308678E-14
   72.5899353         1.38239631E-14
   72.7167282         1.02026076E-14
   72.8435211         5.74938351E-15
   72.9703140         5.91595868E-16
   73.0971069        -5.10042499E-15
   73.2238922        -1.11169720E-14
   73.3506851        -1.72146402E-14
   73.4774780        -2.31239283E-14
   73.6042709        -2.85585967E-14
   73.7310638        -3.32265275E-14
   73.8578568        -3.68418200E-14
   73.9846497        -3.91375673E-14
   74.1114426        -3.98789685E-14
   74.2382355        -3.88762237E-14
   74.3650284        -3.59965997E-14
   74.4918213        -3.11751357E-14
   74.6186142        -2.44235682E-14
   74.7454071        -1.58365905E-14
   74.8722000        -5.59551236E-15
   74.9989929         6.03158482E-15
   75.1257858         1.86930668E-14
   75.2525787         3.19606775E-14
   75.3793716         4.53402134E-14
   75.5061646         5.82857059E-14
   75.6329575         7.02168765E-14
   75.7597504         8.05394569E-14
   75.8865433         8.86677342E-14
   76.0133362         9.40486634E-14
   76.1401291         9.61866288E-14
   76.2669220         9.46680952E-14
   76.3937149         8.91849935E-14
   76.5205078         7.95559094E-14
   76.6473007         6.57442715E-14
   76.7740936         4.78721541E-14
   76.9008865         2.62294933E-14
   77.0276718         1.27721610E-15
   77.1544647        -2.63555250E-14
   77.2812576        -5.58807930E-14
   77.4080505        -8.63681210E-14
   77.5348434        -1.16767151E-13
   77.6616364        -1.45936851E-13
   77.7884293        -1.72679877E-13
   77.9152222        -1.95782260E-13
   78.0420151        -2.14056312E-13
   78.1688080        -2.26385954E-13
   78.2956009        -2.31773178E-13
   78.4223938        -2.29383298E-13
   78.5491867        -2.18588426E-13
   78.6759796        -1.99005878E-13
   78.8027725        -1.70531774E-13
   78.9295654        -1.33366408E-13
   79.0563583        -8.80312194E-14
   79.1831512        -3.53756704E-14
   79.3099442         2.34268171E-14
   79.4367371         8.68946028E-14
   79.5635300         1.53265055E-13
   79.6903229         2.20533634E-13
   79.8171158         2.86503812E-13
   79.9439087         3.48847362E-13
   80.0707016         4.05172776E-13
   80.1974945         4.53101288E-13
   80.3242874         4.90346804E-13
   80.4510803         5.14799087E-13
   80.5778732         5.24606834E-13
   80.7046585         5.18256065E-13
   80.8314514         4.94645232E-13
   80.9582443         4.53150267E-13
   81.0850372         3.93678200E-13
   81.2118301         3.16708004E-13
   81.3386230         2.23314802E-13
   81.4654160         1.15176884E-13
   81.5922089        -5.43621214E-15
   81.7190018        -1.35695518E-13
   81.8457947        -2.72264145E-13
   81.9725876        -4.11368151E-13
   82.0993805        -5.48885319E-13
   82.2261734        -6.80451680E-13
   82.3529663        -8.01580102E-13
   82.4797592        -9.07792504E-13
   82.6065521        -9.94757662E-13
   82.7333450        -1.05843535E-12
   82.8601379        -1.09521691E-12
   82.9869308        -1.10206516E-12
   83.1137238        -1.07664127E-12
   83.2405167        -1.01742172E-12
   83.3673096        -9.23793052E-13
   83.4941025        -7.96129222E-13
   83.6208954        -6.35840447E-13
   83.7476883        -4.45395240E-13
   83.8744812        -2.28311266E-13
   84.0012741         1.08848519E-14
   84.1280670         2.66730946E-13
   84.2548599         5.32933452E-13
   84.3816528         8.02503571E-13
   84.5084381         1.06792038E-12
   84.6352310         1.32131838E-12
   84.7620239         1.55469691E-12
   84.8888168         1.76014205E-12
   85.0156097         1.93006288E-12
   85.1424026         2.05742584E-12
   85.2691956         2.13598822E-12
   85.3959885         2.16051959E-12
   85.5227814         2.12700886E-12
   85.6495743         2.03284156E-12
   85.7763672         1.87695107E-12
   85.9031601         1.65993098E-12
   86.0299530         1.38410659E-12
   86.1567459         1.05355904E-12
   86.2835388         6.74102755E-13
   86.4103317         2.53211623E-13
   86.5371246        -2.00104148E-13
   86.6639175        -6.75472699E-13
   86.7907104        -1.16137731E-12
   86.9175034        -1.64542024E-12
   87.0442963        -2.11461946E-12
   87.1710892        -2.55573557E-12
   87.2978821        -2.95562121E-12
   87.4246750        -3.30158015E-12
   87.5514679        -3.58173343E-12
   87.6782608        -3.78537609E-12
   87.8050537        -3.90330953E-12
   87.9318466        -3.92815945E-12
   88.0586395        -3.85464187E-12
   88.1854324        -3.67979171E-12
   88.3122177        -3.40313173E-12
   88.4390106        -3.02678347E-12
   88.5658035        -2.55550897E-12
   88.6925964        -1.99668450E-12
   88.8193893        -1.36020546E-12
   88.9461823        -6.58314928E-13
   89.0729752         9.46257300E-14
   89.1997681         8.82438491E-13
   89.3265610         1.68747741E-12
   89.4533539         2.49103190E-12
   89.5801468         3.27376017E-12
   89.7069397         4.01615460E-12
   89.8337326         4.69902069E-12
   89.9605255         5.30394825E-12
   90.0873184         5.81378565E-12
   90.2141113         6.21307563E-12
   90.3409042         6.48846385E-12
   90.4676971         6.62905928E-12
   90.5944901         6.62672738E-12
   90.7212830         6.47633292E-12
   90.8480759         6.17591004E-12
   90.9748688         5.72674200E-12
   91.1016617         5.13338243E-12
   91.2284546         4.40359771E-12
   91.3552475         3.54822682E-12
   91.4820404         2.58098209E-12
   91.6088333         1.51818727E-12
   91.7356262         3.78460663E-13
   91.8624191        -8.17647978E-13
   91.9892120        -2.04804576E-12
   92.1159973        -3.28951883E-12
   92.2427902        -4.51815625E-12
   92.3695831        -5.70978334E-12
   92.4963760        -6.84038590E-12
   92.6231689        -7.88651436E-12
   92.7499619        -8.82566849E-12
   92.8767548        -9.63666126E-12
   93.0035477        -1.02999328E-11
   93.1303406        -1.07978557E-11
   93.2571335        -1.11149874E-11
   93.3839264        -1.12382968E-11
   93.5107193        -1.11573632E-11
   93.6375122        -1.08645558E-11
   93.7643051        -1.03551811E-11
   93.8910980        -9.62760687E-12
   94.0178909        -8.68339862E-12
   94.1446838        -7.52741619E-12
   94.2714767        -6.16791470E-12
   94.3982697        -4.61662913E-12
   94.5250626        -2.88885300E-12
   94.6518555        -1.00349264E-12
   94.7786484         1.01690097E-12
   94.9054413         3.14612832E-12
   95.0322342         5.35438317E-12
   95.1590271         7.60835405E-12
   95.2858200         9.87138149E-12
   95.4126129         1.21037104E-11
   95.5394058         1.42628201E-11
   95.6661987         1.63038680E-11
   95.7929916         1.81802524E-11
   95.9197769         1.98442825E-11
   96.0465698         2.12479756E-11
   96.1733627         2.23439722E-11
   96.3001556         2.30865743E-11
   96.4269485         2.34328616E-11
   96.5537415         2.33439414E-11
   96.6805344         2.27861445E-11
   96.8073273         2.17323971E-11
   96.9341202         2.01634525E-11
   97.0609131         1.80691625E-11
   97.1877060         1.54496034E-11
   97.3144989         1.23160952E-11
   97.4412918         8.69204535E-12
   97.5680847         4.61354089E-12
   97.6948776         1.29710871E-13
   97.8216705        -4.69724606E-12
   97.9484634        -9.79233361E-12
   98.0752563        -1.50684257E-11