  -4.50000000         0.00000000    
  -4.37320757         0.00000000    
  -4.24641466         0.00000000    
  -4.11962223         0.00000000    
  -3.99282932         0.00000000    
  -3.86603665         0.00000000    
  -3.73924398         0.00000000    
  -3.61245155         0.00000000    
  -3.48565888         0.00000000    
  -3.35886621         0.00000000    
  -3.23207355         0.00000000    
  -3.10528088         0.00000000    
  -2.97848821         0.00000000    
  -2.85169554         0.00000000    
  -2.72490287         0.00000000    
  -2.59811020         0.00000000    
  -2.47131753         0.00000000    
  -2.34452486         0.00000000    
  -2.21773219         0.00000000    
  -2.09093952         0.00000000    
  -1.96414697         0.00000000    
  -1.83735430         0.00000000    
  -1.71056163         0.00000000    
  -1.58376896         0.00000000    
  -1.45697629         0.00000000    
  -1.33018374         0.00000000    
  -1.20339108         0.00000000    
  -1.07659841         0.00000000    
 -0.949805737         0.00000000    
 -0.823013067         0.00000000    
 -0.696220458         0.00000000    
 -0.569427788         0.00000000    
 -0.442635119         0.00000000    
 -0.315842479         0.00000000    
 -0.189049825         0.00000000    
  -6.22571707E-02     0.00000000    
   6.45354837E-02     0.00000000    
  0.191328138         0.00000000    
  0.318120778         0.00000000    
  0.444913447         0.00000000    
  0.571706116         0.00000000    
  0.698498726         0.00000000    
  0.825291395         0.00000000    
  0.952084064         0.00000000    
   1.07887673         0.00000000    
   1.20566940         0.00000000    
   1.33246195         0.00000000    
   1.45925462         0.00000000    
   1.58604729         0.00000000    
   1.71283996         0.00000000    
   1.83963263         0.00000000    
   1.96642530         0.00000000    
   2.09321785         0.00000000    
   2.22001052         0.00000000    
   2.34680319         0.00000000    
   2.47359586         0.00000000    
   2.60038853         0.00000000    
   2.72718120         0.00000000    
   2.85397387         0.00000000    
   2.98076653         0.00000000    
   3.10755920         0.00000000    
   3.23435187         0.00000000    
   3.36114454         0.00000000    
   3.48793697         0.00000000    
   3.61472964         0.00000000    
   3.74152231         0.00000000    
   3.86831498         0.00000000    
   3.99510765         0.00000000    
   4.12190056         0.00000000    
   4.24869299         0.00000000    
   4.37548542         0.00000000    
   4.50227833         0.00000000    
   4.62907076         0.00000000    
   4.75586367         0.00000000    
   4.88265610         0.00000000    
   5.00944901         0.00000000    
   5.13624144         0.00000000    
   5.26303434         0.00000000    
   5.38982677         0.00000000    
   5.51661968         0.00000000    
   5.64341211         0.00000000    
   5.77020502         0.00000000    
   5.89699745         0.00000000    
   6.02379036         0.00000000    
   6.15058279         0.00000000    
   6.27737522         0.00000000    
   6.40416813         0.00000000    
   6.53096056         0.00000000    
   6.65775347         0.00000000    
   6.78454590         0.00000000    
   6.91133881         0.00000000    
   7.03813124         0.00000000    
   7.16492414         0.00000000    
   7.29171658         0.00000000    
   7.41850948         0.00000000    
   7.54530191         0.00000000    
   7.67209482         0.00000000    
   7.79888725         0.00000000    
   7.92567968         0.00000000    
   8.05247211         0.00000000    
   8.17926502         0.00000000    
   8.30605793         0.00000000    
   8.43285084         0.00000000    
   8.55964279         0.00000000    
   8.68643570         0.00000000    
   8.81322861         0.00000000    
   8.94002151         0.00000000    
   9.06681347         0.00000000    
   9.19360638         0.00000000    
   9.32039928         0.00000000    
   9.44719219         0.00000000    
   9.57398415         0.00000000    
   9.70077705         0.00000000    
   9.82756996         0.00000000    
   9.95436192         0.00000000    
   10.0811548         0.00000000    
   10.2079477         0.00000000    
   10.3347406         0.00000000    
   10.4615326         0.00000000    
   10.5883255         0.00000000    
   10.7151184         0.00000000    
   10.8419113         0.00000000    
   10.9687033         0.00000000    
   11.0954962         0.00000000    
   11.2222891         0.00000000    
   11.3490820         0.00000000    
   11.4758739         0.00000000    
   11.6026669         0.00000000    
   11.7294598         0.00000000    
   11.8562517         0.00000000    
   11.9830446         0.00000000    
   12.1098375         0.00000000    
   12.2366304         0.00000000    
   12.3634224         0.00000000    
   12.4902153         0.00000000    
   12.6170082         0.00000000    
   12.7438011         0.00000000    
   12.8705931         0.00000000    
   12.9973860         0.00000000    
   13.1241789         0.00000000    
   13.2509708         0.00000000    
   13.3777637         0.00000000    
   13.5045567         0.00000000    
   13.6313496         0.00000000    
   13.7581415         0.00000000    
   13.8849344         0.00000000    
   14.0117273         0.00000000    
   14.1385202         0.00000000    
   14.2653122         0.00000000    
   14.3921051         0.00000000    
   14.5188980         0.00000000    
   14.6456909         0.00000000    
   14.7724829         0.00000000    
   14.8992758         0.00000000    
   15.0260687         0.00000000    
   15.1528606         0.00000000    
   15.2796535         0.00000000    
   15.4064465         0.00000000    
   15.5332394         0.00000000    
   15.6600313         0.00000000    
   15.7868242         0.00000000    
   15.9136171         0.00000000    
   16.0404091         0.00000000    
   16.1672020         0.00000000    
   16.2939949         0.00000000    
   16.4207878         0.00000000    
   16.5475807         0.00000000    
   16.6743736         0.00000000    
   16.8011646         0.00000000    
   16.9279575         0.00000000    
   17.0547504         0.00000000    
   17.1815434         0.00000000    
   17.3083363         0.00000000    
   17.4351292         0.00000000    
   17.5619221         0.00000000    
   17.6887150         0.00000000    
   17.8155060         0.00000000    
   17.9422989         0.00000000    
   18.0690918         0.00000000    
   18.1958847         0.00000000    
   18.3226776         0.00000000    
   18.4494705         0.00000000    
   18.5762634         0.00000000    
   18.7030544         0.00000000    
   18.8298473         0.00000000    
   18.9566402         0.00000000    
   19.0834332         0.00000000    
   19.2102261         0.00000000    
   19.3370190         0.00000000    
   19.4638119         0.00000000    
   19.5906048         0.00000000    
   19.7173958         6.80199347E-35
   19.8441887         4.07682150E-34
   19.9709816         9.43199678E-34
   20.0977745         1.28884341E-33
   20.2245674         7.61691182E-34
   20.3513603        -6.34605732E-34
   20.4781532        -1.82936051E-33
   20.6049442        -2.15463119E-33
   20.7317371        -1.81461192E-33
   20.8585300        -1.22018068E-33
   20.9853230        -5.04875962E-33
   21.1121159        -9.65562594E-33
   21.2389088        -1.23008864E-32
   21.3657017        -6.99334062E-33
   21.4924946         8.78808834E-33
   21.6192856         2.39019232E-32
   21.7460785         2.92858372E-32
   21.8728714         2.46489117E-32
   21.9996643         2.05251658E-32
   22.1264572         2.84437072E-32
   22.2532501         5.28712674E-32
   22.3800430         7.97761525E-32
   22.5068340        -1.94209675E-31
   22.6336269        -5.59692310E-31
   22.7604198        -4.52751758E-31
   22.8872128         5.03994425E-31
   23.0140057         1.99753767E-30
   23.1407986         3.37194974E-30
   23.2675915         5.20795832E-30
   23.3943844         6.88814863E-30
   23.5211754         7.60912051E-30
   23.6479683         7.62125236E-30
   23.7747612         7.85407698E-30
   23.9015541         8.49049075E-30
   24.0283470         1.04870594E-29
   24.1551399         1.28072536E-29
   24.2819328         2.07472729E-29
   24.4087238         3.64026790E-29
   24.5355167         6.01172773E-29
   24.6623096         9.45447315E-29
   24.7891026         1.33015399E-28
   24.9158955         1.66293001E-28
   25.0426884         1.93856140E-28
   25.1694813         2.09431328E-28
   25.2962742         2.16311375E-28
   25.4230652         2.12704181E-28
   25.5498581         1.89575881E-28
   25.6766510         1.41108385E-28
   25.8034439         5.03051758E-29
   25.9302368        -9.25094449E-29
   26.0570297        -2.98141948E-28
   26.1838226        -5.76720059E-28
   26.3106136        -9.22916607E-28
   26.4374065        -1.32113575E-27
   26.5641994        -1.74851077E-27
   26.6909924        -2.18807636E-27
   26.8177853        -2.62034267E-27
   26.9445782        -3.02516024E-27
   27.0713711        -3.35309603E-27
   27.1981640        -3.54568017E-27
   27.3249550        -3.53140479E-27
   27.4517479        -3.22499608E-27
   27.5785408        -2.54798028E-27
   27.7053337        -1.42572713E-27
   27.8321266         1.94033891E-28
   27.9589195         2.34572759E-27
   28.0857124         5.03951810E-27
   28.2125034         8.25406967E-27
   28.3392963         1.19170320E-26
   28.4660892         1.59020954E-26
   28.5928822         2.00141654E-26
   28.7196751         2.39742502E-26
   28.8464680         2.74193753E-26
   28.9732609         2.99018681E-26
   29.1000538         3.09020421E-26
   29.2268448         2.98512948E-26
   29.3536377         2.61594904E-26
   29.4804306         1.92547342E-26
   29.6072235         8.63126767E-27
   29.7340164        -6.09294593E-27
   29.8608093        -2.51091437E-26
   29.9876022        -4.83443730E-26
   30.1143932        -7.53778350E-26
   30.2411861        -1.05369113E-25
   30.3679790        -1.36988790E-25
   30.4947720        -1.68368099E-25
   30.6215649        -1.97076757E-25
   30.7483578        -2.20136344E-25
   30.8751507        -2.34082961E-25
   31.0019417        -2.35083952E-25
   31.1287346        -2.19117703E-25
   31.2555275        -1.82221483E-25
   31.3823204        -1.20805136E-25
   31.5091133        -3.20323010E-26
   31.6359062         8.57503514E-26
   31.7626991         2.32536153E-25
   31.8894920         4.06174570E-25
   32.0162849         6.01904125E-25
   32.1430779         8.11952047E-25
   32.2698708         1.02524179E-24
   32.3966637         1.22726720E-24
   32.5234528         1.40018511E-24
   32.6502457         1.52318204E-24
   32.7770386         1.57316515E-24
   32.9038315         1.52581131E-24
   33.0306244         1.35699843E-24
   33.1574173         1.04461918E-24
   33.2842102         5.70742344E-25
   33.4110031        -7.59383207E-26
   33.5377960        -8.97472162E-25
   33.6645889        -1.88397734E-24
   33.7913818        -3.01111521E-24
   33.9181747        -4.23793354E-24
   34.0449677        -5.50533680E-24
   34.1717606        -6.73545297E-24
   34.2985535        -7.83219051E-24
   34.4253426        -8.68324363E-24
   34.5521355        -9.16379639E-24
   34.6789284        -9.14206801E-24
   34.8057213        -8.48681253E-24
   34.9325142        -7.07670394E-24
   35.0593071        -4.81143305E-24
   35.1861000        -1.62417073E-24
   35.3128929         2.50516625E-24
   35.4396858         7.53658224E-24
   35.5664787         1.33574898E-23
   35.6932716         1.97721785E-23
   35.8200645         2.64944552E-23
   35.9468575         3.31447198E-23
   36.0736504         3.92529298E-23
   36.2004433         4.42684790E-23
   36.3272324         4.75781449E-23
   36.4540253         4.85327582E-23
   36.5808182         4.64828337E-23
   36.7076111         4.08229050E-23
   36.8344040         3.10435194E-23
   36.9611969         1.67891957E-23
   37.0879898        -2.08032028E-24
   37.2147827        -2.54288208E-23
   37.3415756        -5.27866401E-23
   37.4683685        -8.33029417E-23
   37.5951614        -1.15712389E-22
   37.7219543        -1.48322372E-22
   37.8487473        -1.79025684E-22
   37.9755402        -2.05344293E-22
   38.1023293        -2.24508072E-22
   38.2291222        -2.33571516E-22
   38.3559151        -2.29568343E-22
   38.4827080        -2.09703828E-22
   38.6095009        -1.71578761E-22
   38.7362938        -1.13438400E-22
   38.8630867        -3.44348798E-23
   38.9898796         6.51111087E-23
   39.1166725         1.83466984E-22
   39.2434654         3.17283895E-22
   39.3702583         4.61452025E-22
   39.4970512         6.09040403E-22
   39.6238441         7.51340914E-22
   39.7506371         8.78039195E-22
   39.8774300         9.77526141E-22
   40.0042191         1.03736234E-21
   40.1310120         1.04489673E-21
   40.2578049         9.88032002E-22
   40.3845978         8.56120726E-22
   40.5113907         6.40959002E-22
   40.6381836         3.37838202E-22
   40.7649765        -5.34049556E-23
   40.8917694        -5.27404179E-22
   41.0185623        -1.07242331E-21
   41.1453552        -1.66974262E-21
   41.2721481        -2.29336027E-21
   41.3989410        -2.91008784E-21
   41.5257339        -3.48012372E-21
   41.6525269        -3.95815132E-21
   41.7793198        -4.29502184E-21
   41.9061089        -4.44001351E-21
   42.0329018        -4.34364980E-21
   42.1596947        -3.96102181E-21
   42.2864876        -3.25549491E-21
   42.4132805        -2.20265959E-21
   42.5400734        -7.94318712E-22
   42.6668663         9.57719548E-22
   42.7936592         3.01831683E-21
   42.9204521         5.32644861E-21
   43.0472450         7.79371754E-21
   43.1740379         1.03042430E-20
   43.3008308         1.27161951E-20
   43.4276237         1.48651885E-20
   43.5544167         1.65697347E-20
   43.6812096         1.76387331E-20
   43.8079987         1.78810324E-20
   43.9347916         1.71168080E-20
   44.0615845         1.51904643E-20
   44.1883774         1.19845352E-20
   44.3151703         7.43399657E-21
   44.4419632         1.54015890E-21
   44.5687561        -5.61671348E-21
   44.6955490        -1.38670820E-20
   44.8223419        -2.29450822E-20
   44.9491348        -3.24858448E-20
   45.0759277        -4.20280840E-20
   45.2027206        -5.10227458E-20
   45.3295135        -5.88483882E-20
   45.4563065        -6.48335634E-20
   45.5830994        -6.82861119E-20
   45.7098885        -6.85290768E-20
   45.8366814        -6.49421050E-20
   45.9634743        -5.70071940E-20
   46.0902672        -4.43567041E-20
   46.2170601        -2.68214784E-20
   46.3438530        -4.47622003E-21
   46.4706459         2.23209535E-20
   46.5974388         5.28977737E-20
   46.7242317         8.62496055E-20
   46.8510246         1.21036441E-19
   46.9778175         1.55598295E-19
   47.1046104         1.87991024E-19
   47.2314034         2.16044041E-19
   47.3581963         2.37440670E-19
   47.4849892         2.49820126E-19
   47.6117783         2.50899364E-19
   47.7385712         2.38611311E-19
   47.8653641         2.11254600E-19
   47.9921570         1.67648352E-19
   48.1189499         1.07284744E-19
   48.2457428         3.04701866E-20
   48.3725357        -6.15540507E-20
   48.4993286        -1.66521784E-19
   48.6261215        -2.81092050E-19
   48.7529144        -4.00849011E-19
   48.8797073        -5.20358851E-19
   49.0065002        -6.33291080E-19
   49.1332932        -7.32606003E-19
   49.2600861        -8.10810295E-19
   49.3868790        -8.60278177E-19
   49.5136681        -8.73629182E-19
   49.6404610        -8.44152963E-19
   49.7672539        -7.66268480E-19
   49.8940468        -6.35992341E-19
   50.0208397        -4.51400163E-19
   50.1476326        -2.13051456E-19
   50.2744255         7.56480193E-20
   50.4012184         4.08175323E-19
   50.5280113         7.74737879E-19
   50.6548042         1.16226538E-18
   50.7815971         1.55456943E-18
   50.9083900         1.93268372E-18
   51.0351830         2.27540016E-18
   51.1619759         2.55999599E-18
   51.2887688         2.76314721E-18
   51.4155579         2.86200790E-18
   51.5423508         2.83542418E-18
   51.6691437         2.66524190E-18
   51.7959366         2.33766018E-18
   51.9227295         1.84455610E-18
   52.0495224         1.18473047E-18
   52.1763153         3.64981529E-19
   52.3031082        -5.99057073E-19
   52.4299011        -1.68239500E-18
   52.5566940        -2.85054959E-18
   52.6834869        -4.05985580E-18
   52.8102798        -5.25826928E-18
   52.9370728        -6.38668715E-18
   53.0638657        -7.38079612E-18
   53.1906586        -8.17343615E-18
   53.3174477        -8.69742198E-18
   53.4442406        -8.88875382E-18
   53.5710335        -8.69011881E-18
   53.6978264        -8.05456368E-18
   53.8246193        -6.94913936E-18
   53.9514122        -5.35841232E-18
   54.0782051        -3.28758550E-18
   54.2049980        -7.65086697E-19
   54.3317909         2.15560993E-18
   54.4585838         5.39510232E-18
   54.5853767         8.84825175E-18
   54.7121696         1.23856334E-17
   54.8389626         1.58562963E-17
   54.9657555         1.90918794E-17
   55.0925484         2.19120839E-17
   55.2193375         2.41313880E-17
   55.3461304         2.55669020E-17
   55.4729233         2.60470489E-17
   55.5997162         2.54209295E-17
   55.7265091         2.35678216E-17
   55.8533020         2.04066003E-17
   55.9800949         1.59044812E-17
   56.1068878         1.00847023E-17
   56.2336807         3.03263252E-18
   56.3604736        -5.10019176E-18
   56.4872665        -1.40944744E-17
   56.6140594        -2.36644346E-17
   56.7408524        -3.34621921E-17
   56.8676453        -4.30854988E-17
   56.9944382        -5.20887907E-17
   57.1212273        -5.99975605E-17
   57.2480202        -6.63256576E-17
   57.3748131        -7.05953787E-17
   57.5016060        -7.23593248E-17
   57.6283989        -7.12238175E-17
   57.7551918        -6.68725564E-17
   57.8819847        -5.90897728E-17
   58.0087776        -4.77817903E-17
   58.1355705        -3.29956722E-17
   58.2623634        -1.49341636E-17
   58.3891563         6.03459028E-18
   58.5159492         2.93731769E-17
   58.6427422         5.43779733E-17
   58.7695351         8.01896348E-17
   58.8963280         1.05811561E-16
   59.0231171         1.30136302E-16
   59.1499100         1.51979720E-16
   59.2767029         1.70122346E-16
   59.4034958         1.83357077E-16
   59.5302887         1.90541491E-16
   59.6570816         1.90653484E-16
   59.7838745         1.82848460E-16
   59.9106674         1.66514673E-16
   60.0374603         1.41325965E-16
   60.1642532         1.07287608E-16
   60.2910461         6.47738800E-17
   60.4178391         1.45543438E-17
   60.5446320        -4.21937154E-17
   60.6714249        -1.03888300E-16
   60.7982178        -1.68562680E-16
   60.9250069        -2.33903834E-16
   61.0517998        -2.97309120E-16
   61.1785927        -3.55961573E-16
   61.3053856        -4.06921907E-16
   61.4321785        -4.47235884E-16
   61.5589714        -4.74053742E-16
   61.6857643        -4.84758491E-16
   61.8125572        -4.77098666E-16
   61.9393501        -4.49320274E-16
   62.0661430        -4.00292736E-16
   62.1929359        -3.29622924E-16
   62.3197289        -2.37751534E-16
   62.4465218        -1.26025837E-16
   62.5733147         3.25685368E-18
   62.7001076         1.46839580E-16
   62.8268967         3.00533457E-16
   62.9536896         4.59287787E-16
   63.0804825         6.17299930E-16
   63.2072754         7.68169998E-16
   63.3340683         9.05094621E-16
   63.4608612         1.02109642E-15
   63.5876541         1.10928832E-15
   63.7144470         1.16315708E-15
   63.8412399         1.17686715E-15
   63.9680328         1.14556346E-15
   64.0948257         1.06567163E-15
   64.2216187         9.35175831E-16
   64.3484116         7.53861070E-16
   64.4752045         5.23512789E-16
   64.6019974         2.48054049E-16
   64.7287903        -6.63890130E-17
   64.8555832        -4.11500041E-16
   64.9823761        -7.76879243E-16
   65.1091690        -1.15023983E-15
   65.2359619        -1.51770336E-15
   65.3627548        -1.86418844E-15
   65.4895477        -2.17388634E-15
   65.6163330        -2.43081685E-15
   65.7431259        -2.61944452E-15
   65.8699188        -2.72534397E-15
   65.9967117        -2.73588381E-15
   66.1235046        -2.64091426E-15
   66.2502975        -2.43341893E-15
   66.3770905        -2.11011344E-15
   66.5038834        -1.67194891E-15
   66.6306763        -1.12450464E-15
   66.7574692        -4.78226543E-16
   66.8842621         2.51496946E-16
   67.0110550         1.04445452E-15
   67.1378479         1.87593319E-15
   67.2646408         2.71725205E-15
   67.3914337         3.53650782E-15
   67.5182266         4.29952230E-15
   67.6450195         4.97097633E-15
   67.7718124         5.51569517E-15
   67.8986053         5.90006475E-15
   68.0253983         6.09350420E-15
   68.1521912         6.06999353E-15
   68.2789841         5.80952455E-15
   68.4057770         5.29949213E-15
   68.5325699         4.53589277E-15
   68.6593628         3.52431986E-15
   68.7861557         2.28064087E-15
   68.9129486         8.31362467E-16
   69.0397415        -7.86427052E-16
   69.1665344        -2.52552402E-15
   69.2933273        -4.32953225E-15
   69.4201126        -6.13424056E-15
   69.5469055        -7.86944430E-15
   69.6736984        -9.46116998E-15
   69.8004913        -1.08342671E-14
   69.9272842        -1.19152879E-14
   70.0540771        -1.26355454E-14
   70.1808701        -1.29342880E-14
   70.3076630        -1.27618236E-14
   70.4344559        -1.20825091E-14
   70.5612488        -1.08774116E-14
   70.6880417        -9.14658872E-15
   70.8148346        -6.91075335E-15
   70.9416275        -4.21230925E-15
   71.0684204        -1.11557966E-15
   71.1952133         2.29381689E-15
   71.3220062         5.91049765E-15
   71.4487991         9.61178938E-15
   71.5755920         1.32610860E-14
   71.7023849         1.67120922E-14
   71.8291779         1.98138049E-14
   71.9559708         2.24160985E-14
   72.0827637         2.43757871E-14
   72.2095566         2.55628936E-14
   72.3363495         2.58669446E-14
   72.4631424         2.52029791E-14
   72.5899353         2.35170617E-14
   72.7167282         2.07910048E-14
   72.8435211         1.70460095E-14
   72.9703140         1.23450910E-14
   73.0971069         6.79391871E-15
   73.2238922         5.40102988E-16
   73.3506851        -6.22933102E-15
   73.4774780        -1.32922432E-14
   73.6042709        -2.03974173E-14
   73.7310638        -2.72722891E-14
   73.8578568        -3.36321242E-14
   73.9846497        -3.91904052E-14
   74.1114426        -4.36701219E-14
   74.2382355        -4.68155381E-14
   74.3650284        -4.84040298E-14
   74.4918213        -4.82574389E-14
   74.6186142        -4.62525831E-14
   74.7454071        -4.23302513E-14
   74.8722000        -3.65023631E-14
   74.9989929        -2.88567286E-14
   75.1257858        -1.95591139E-14
   75.2525787        -8.85232016E-15
   75.3793716         2.94795672E-15
   75.5061646         1.54604960E-14
   75.6329575         2.82491163E-14
   75.7597504         4.08362309E-14
   75.8865433         5.27190155E-14
   76.0133362         6.33878123E-14
   76.1401291         7.23459988E-14
   76.2669220         7.91308750E-14
   76.3937149         8.33344488E-14
   76.5205078         8.46234907E-14
   76.6473007         8.27579785E-14
   76.7740936         7.76069001E-14
   76.9008865         6.91607755E-14
   77.0276718         5.75399239E-14
   77.1544647         4.29981537E-14
   77.2812576         2.59211242E-14
   77.4080505         6.81926617E-15
   77.5348434        -1.36848803E-14
   77.6616364        -3.48747147E-14
   77.7884293        -5.59625757E-14
   77.9152222        -7.61172809E-14
   78.0420151        -9.44950363E-14
   78.1688080        -1.10272800E-13
   78.2956009        -1.22682937E-13
   78.4223938        -1.31047706E-13
   78.5491867        -1.34812273E-13
   78.6759796        -1.33574331E-13
   78.8027725        -1.27109640E-13
   78.9295654        -1.15391434E-13
   79.0563583        -9.86029495E-14
   79.1831512        -7.71420417E-14
   79.3099442        -5.16170494E-14
   79.4367371        -2.28336535E-14
   79.5635300         8.22700147E-15
   79.6903229         4.04390910E-14
   79.8171158         7.25704422E-14
   79.9439087         1.03327693E-13
   80.0707016         1.31406428E-13
   80.1974945         1.55544739E-13
   80.3242874         1.74577990E-13
   80.4510803         1.87492464E-13
   80.5778732         1.93476203E-13
   80.7046585         1.91963117E-13
   80.8314514         1.82670272E-13
   80.9582443         1.65624757E-13
   81.0850372         1.41178735E-13
   81.2118301         1.10011860E-13
   81.3386230         7.31198617E-14
   81.4654160         3.17886146E-14
   81.5922089        -1.24449333E-14
   81.7190018        -5.78453098E-14
   81.8457947        -1.02542168E-13
   81.9725876        -1.44603242E-13
   82.0993805        -1.82114008E-13
   82.2261734        -2.13261280E-13
   82.3529663        -2.36416301E-13
   82.4797592        -2.50215376E-13
   82.6065521        -2.53632537E-13
   82.7333450        -2.46043095E-13
   82.8601379        -2.27271435E-13
   82.9869308        -1.97623642E-13
   83.1137238        -1.57900291E-13
   83.2405167        -1.09388613E-13
   83.3673096        -5.38326741E-14
   83.4941025         6.61740297E-15
   83.6208954         6.94773422E-14
   83.7476883         1.32018772E-13
   83.8744812         1.91375968E-13
   84.0012741         2.44663502E-13
   84.1280670         2.89103133E-13
   84.2548599         3.22151919E-13
   84.3816528         3.41628689E-13
   84.5084381         3.45831707E-13
   84.6352310         3.33642293E-13
   84.7620239         3.04609826E-13
   84.8888168         2.59011616E-13
   85.0156097         1.97886561E-13
   85.1424026         1.23034612E-13
   85.2691956         3.69872895E-14
   85.3959885        -5.70606320E-14
   85.5227814        -1.55346086E-13
   85.6495743        -2.53668424E-13
   85.7763672        -3.47544991E-13
   85.9031601        -4.32387307E-13
   86.0299530        -5.03694308E-13
   86.1567459        -5.57253571E-13
   86.2835388        -5.89342594E-13
   86.4103317        -5.96920408E-13
   86.5371246        -5.77803376E-13
   86.6639175        -5.30814758E-13
   86.7907104        -4.55900400E-13
   86.9175034        -3.54204730E-13
   87.0442963        -2.28100064E-13
   87.1710892        -8.11659903E-14
   87.2978821         8.18833933E-14
   87.4246750         2.55323730E-13
   87.5514679         4.32595989E-13
   87.6782608         6.06525789E-13
   87.8050537         7.69583941E-13
   87.9318466         9.14175528E-13
   88.0586395         1.03295172E-12
   88.1854324         1.11912812E-12
   88.3122177         1.16679767E-12
   88.4390106         1.17123076E-12
   88.5658035         1.12914051E-12
   88.6925964         1.03890605E-12
   88.8193893         9.00739607E-13
   88.9461823         7.16791752E-13
   89.0729752         4.91179905E-13
   89.1997681         2.29941391E-13
   89.3265610        -5.90949273E-14
   89.4533539        -3.66519044E-13
   89.5801468        -6.81620721E-13
   89.7069397        -9.92743539E-13
   89.8337326        -1.28769489E-12
   89.9605255        -1.55419828E-12
   90.0873184        -1.78037609E-12
   90.2141113        -1.95524087E-12
   90.3409042        -2.06917664E-12
   90.4676971        -2.11439156E-12
   90.5944901        -2.08532432E-12
   90.7212830        -1.97897514E-12
   90.8480759        -1.79516027E-12
   90.9748688        -1.53666066E-12
   91.1016617        -1.20926435E-12
   91.2284546        -8.21688529E-13
   91.3552475        -3.85383918E-13
   91.4820404         8.57816151E-14
   91.6088333         5.75950258E-13
   91.7356262         1.06779949E-12
   91.8624191         1.54315276E-12
   91.9892120         1.98365109E-12
   92.1159973         2.37146587E-12
   92.2427902         2.69001986E-12
   92.3695831         2.92469412E-12
   92.4963760         3.06349477E-12
   92.6231689         3.09763239E-12
   92.7499619         3.02201189E-12
   92.8767548         2.83559049E-12
   93.0035477         2.54159476E-12
   93.1303406         2.14757053E-12
   93.2571335         1.66526450E-12
   93.3839264         1.11033817E-12
   93.5107193         5.01899629E-13
   93.6375122        -1.38111636E-13
   93.7643051        -7.85689927E-13
   93.8910980        -1.41563714E-12
   94.0178909        -2.00253074E-12
   94.1446838        -2.52174215E-12
   94.2714767        -2.95046279E-12
   94.3982697        -3.26870692E-12
   94.5250626        -3.46024598E-12
   94.6518555        -3.51342826E-12
   94.7786484        -3.42185134E-12
   94.9054413        -3.18485559E-12
   95.0322342        -2.80780347E-12
   95.1590271        -2.30212724E-12
   95.2858200        -1.68513543E-12
   95.4126129        -9.79568857E-13
   95.5394058        -2.12920529E-13
   95.6661987         5.83476518E-13
   95.7929916         1.37555234E-12
   95.9197769         2.12777083E-12
   96.0465698         2.80451899E-12
   96.1733627         3.37156106E-12
   96.3001556         3.79752046E-12
   96.4269485         4.05530470E-12
   96.5537415         4.12343727E-12
   96.6805344         3.98723112E-12
   96.8073273         3.63973218E-12
   96.9341202         3.08243101E-12
   97.0609131         2.32565117E-12
   97.1877060         1.38862066E-12
   97.3144989         2.99181334E-13
   97.4412918        -9.06821710E-13
   97.5680847        -2.18654066E-12
   97.6948776        -3.49139814E-12
   97.8216705        -4.76868198E-12
   97.9484634        -5.96335004E-12
   98.0752563        -7.02003299E-12