  -4.50000000         0.00000000    
  -4.37320757         0.00000000    
  -4.24641466         0.00000000    
  -4.11962223         0.00000000    
  -3.99282932         0.00000000    
  -3.86603665         0.00000000    
  -3.73924398         1.19176958E-32
  -3.61245155         1.53396653E-31
  -3.48565888         3.21984759E-31
  -3.35886621        -5.37498695E-31
  -3.23207355        -7.16013056E-30
  -3.10528088        -4.25565518E-29
  -2.97848821        -1.65256850E-28
  -2.85169554        -4.14538317E-28
  -2.72490287        -5.66606134E-28
  -2.59811020         2.27201835E-28
  -2.47131753         3.63307425E-27
  -2.34452486         1.14205273E-26
  -2.21773219         2.27762216E-26
  -2.09093952         2.94379347E-26
  -1.96414697         1.11000664E-26
  -1.83735430        -6.19804131E-26
  -1.71056163        -2.08129930E-25
  -1.58376896        -3.85370780E-25
  -1.45697629        -4.18026761E-25
  -1.33018374         6.80557267E-26
  -1.20339108         1.62750584E-24
  -1.07659841         4.78832929E-24
 -0.949805737         9.56275175E-24
 -0.823013067         1.46841787E-23
 -0.696220458         1.67903506E-23
 -0.569427788         1.00652601E-23
 -0.442635119        -1.28869761E-23
 -0.315842479        -5.81310528E-23
 -0.189049825        -1.25077986E-22
  -6.22571707E-02    -1.99439675E-22
   6.45354837E-02    -2.46799514E-22
  0.191328138        -2.10978628E-22
  0.318120778        -2.25897483E-23
  0.444913447         3.77372478E-22
  0.571706116         9.97466627E-22
  0.698498726         1.74463458E-21
  0.825291395         2.37678414E-21
  0.952084064         2.48368148E-21
   1.07887673         1.52636391E-21
   1.20566940        -1.03834623E-21
   1.33246195        -5.53908209E-21
   1.45925462        -1.18003494E-20
   1.58604729        -1.88489872E-20
   1.71283996        -2.47266726E-20
   1.83963263        -2.65439609E-20
   1.96642530        -2.08995631E-20
   2.09321785        -4.72420256E-21
   2.22001052         2.35114942E-20
   2.34680319         6.24448726E-20
   2.47359586         1.06704813E-19
   2.60038853         1.46516421E-19
   2.72718120         1.68502429E-19
   2.85397387         1.57985319E-19
   2.98076653         1.02751755E-19
   3.10755920        -2.22900739E-21
   3.23435187        -1.50136112E-19
   3.36114454        -3.19053411E-19
   3.48793697        -4.71618422E-19
   3.61472964        -5.58719145E-19
   3.74152231        -5.27642590E-19
   3.86831498        -3.33980816E-19
   3.99510765         4.46240676E-20
   4.12190056         5.95844148E-19
   4.24869299         1.26457728E-18
   4.37548542         1.95253854E-18
   4.50227833         2.52747145E-18
   4.62907076         2.84201123E-18
   4.75586367         2.75998221E-18
   4.88265610         2.18588515E-18
   5.00944901         1.09205387E-18
   5.13624144        -4.62184220E-19
   5.26303434        -2.32393891E-18
   5.38982677        -4.25536904E-18
   5.51661968        -5.95762898E-18
   5.64341211        -7.10804076E-18
   5.77020502        -7.40673733E-18
   5.89699745        -6.62808534E-18
   6.02379036        -4.67175439E-18
   6.15058279        -1.60785000E-18
   6.27737522         2.29029458E-18
   6.40416813         6.53326811E-18
   6.53096056         1.04311818E-17
   6.65775347         1.31457007E-17
   6.78454590         1.37831658E-17
   6.91133881         1.15265277E-17
   7.03813124         5.79358045E-18
   7.16492414        -3.60253080E-18
   7.29171658        -1.63239147E-17
   7.41850948        -3.14460783E-17
   7.54530191        -4.74932002E-17
   7.67209482        -6.25822882E-17
   7.79888725        -7.46613221E-17
   7.92567968        -8.17970651E-17
   8.05247211        -8.24449461E-17
   8.17926502        -7.56257485E-17
   8.30605793        -6.09484278E-17
   8.43285084        -3.84568939E-17
   8.55964279        -8.33471983E-18
   8.68643570         2.94371643E-17
   8.81322861         7.53280892E-17
   8.94002151         1.30254040E-16
   9.06681347         1.95198372E-16
   9.19360638         2.70414183E-16
   9.32039928         3.54288153E-16
   9.44719219         4.42085712E-16
   9.57398415         5.24921723E-16
   9.70077705         5.89371877E-16
   9.82756996         6.18125258E-16
   9.95436192         5.91960410E-16
   10.0811548         4.93101448E-16
   10.2079477         3.09709656E-16
   10.3347406         4.09272225E-17
   10.4615326        -2.98414445E-16
   10.5883255        -6.74512929E-16
   10.7151184        -1.03386883E-15
   10.8419113        -1.30606699E-15
   10.9687033        -1.41061977E-15
   11.0954962        -1.26782409E-15
   11.2222891        -8.12862526E-16
   11.3490820        -1.16265248E-17
   11.4758739         1.12390028E-15
   11.6026669         2.52326223E-15
   11.7294598         4.05077244E-15
   11.8562517         5.50662641E-15
   11.9830446         6.63736966E-15
   12.1098375         7.15607230E-15
   12.2366304         6.77125677E-15
   12.3634224         5.22227449E-15
   12.4902153         2.31773287E-15
   12.6170082        -2.02721031E-15
   12.7438011        -7.75904880E-15
   12.8705931        -1.46636430E-14
   12.9973860        -2.23566062E-14
   13.1241789        -3.02882278E-14
   13.2509708        -3.77634528E-14
   13.3777637        -4.39760024E-14
   13.5045567        -4.80547439E-14
   13.6313496        -4.91197150E-14
   13.7581415        -4.63450520E-14
   13.8849344        -3.90261621E-14
   14.0117273        -2.66488627E-14
   14.1385202        -8.95841273E-15
   14.2653122         1.39737998E-14
   14.3921051         4.16888441E-14
   14.5188980         7.32883060E-14
   14.6456909         1.07397720E-13
   14.7724829         1.42153298E-13
   14.8992758         1.75221301E-13
   15.0260687         2.03860000E-13
   15.1528606         2.25033344E-13
   15.2796535         2.35582333E-13
   15.4064465         2.32455141E-13
   15.5332394         2.12989633E-13
   15.6600313         1.75233133E-13
   15.7868242         1.18275927E-13
   15.9136171         4.25652284E-14
   16.0404091        -4.98382395E-14
   16.1672020        -1.55102927E-13
   16.2939949        -2.67606927E-13
   16.4207878        -3.80088322E-13
   16.5475807        -4.83984218E-13
   16.6743736        -5.69961450E-13
   16.8011646        -6.28621504E-13
   16.9279575        -6.51341773E-13
   17.0547504        -6.31197460E-13
   17.1815434        -5.63889755E-13
   17.3083363        -4.48597810E-13
   17.4351292        -2.88664058E-13
   17.5619221        -9.20254541E-14
   17.6887150         1.28689458E-13
   17.8155060         3.56464424E-13
   17.9422989         5.70646015E-13
   18.0690918         7.48161461E-13
   18.1958847         8.65191816E-13
   18.3226776         8.99251214E-13
   18.4494705         8.31580193E-13
   18.5762634         6.49713139E-13
   18.7030544         3.50033425E-13
   18.8298473        -5.99153634E-14
   18.9566402        -5.59627540E-13
   19.0834332        -1.11462499E-12
   19.2102261        -1.67651288E-12
   19.3370190        -2.18433908E-12
   19.4638119        -2.56742002E-12
   19.5906048        -2.74969327E-12
   19.7173958        -2.65551708E-12
   19.8441887        -2.21669102E-12
   19.9709816        -1.38030744E-12
   20.0977745        -1.16897838E-13
   20.2245674         1.57177656E-12
   20.3513603         3.64602966E-12
   20.4781532         6.02339923E-12
   20.6049442         8.57636705E-12
   20.7317371         1.11332792E-11
   20.8585300         1.34829214E-11
   20.9853230         1.53830386E-11
   21.1121159         1.65728022E-11
   21.2389088         1.67889973E-11
   21.3657017         1.57853487E-11
   21.4924946         1.33541988E-11
   21.6192856         9.34935723E-12
   21.7460785         3.70876203E-12
   21.8728714        -3.52468185E-12
   21.9996643        -1.21858582E-11
   22.1264572        -2.19756505E-11
   22.2532501        -3.24564056E-11
   22.3800430        -4.30562842E-11
   22.5068340        -5.30837735E-11
   22.6336269        -6.17531790E-11
   22.7604198        -6.82211718E-11
   22.8872128        -7.16337961E-11
   23.0140057        -7.11824003E-11
   23.1407986        -6.61659408E-11
   23.2675915        -5.60564789E-11
   23.3943844        -4.05637121E-11
   23.5211754        -1.96939479E-11
   23.6479683         6.20147380E-12
   23.7747612         3.63931212E-11
   23.9015541         6.97603017E-11
   24.0283470         1.04801529E-10
   24.1551399         1.39671261E-10
   24.2819328         1.72243886E-10
   24.4087238         2.00204867E-10
   24.5355167         2.21166155E-10
   24.6623096         2.32802139E-10
   24.7891026         2.32999758E-10
   24.9158955         2.20015270E-10
   25.0426884         1.92628954E-10
   25.1694813         1.50287616E-10
   25.2962742         9.32251915E-11
   25.4230652         2.25513271E-11
   25.5498581        -5.97008554E-11
   25.6766510        -1.50575177E-10
   25.8034439        -2.46246551E-10
   25.9302368        -3.42131490E-10
   26.0570297        -4.33054509E-10
   26.1838226        -5.13467269E-10
   26.3106136        -5.77713211E-10
   26.4374065        -6.20327456E-10
   26.5641994        -6.36359021E-10
   26.6909924        -6.21699470E-10
   26.8177853        -5.73400660E-10
   26.9445782        -4.89962404E-10
   27.0713711        -3.71571468E-10
   27.1981640        -2.20274160E-10
   27.3249550        -4.00654857E-11
   27.4517479         1.63118394E-10
   27.5785408         3.81513099E-10
   27.7053337         6.05749784E-10
   27.8321266         8.25189361E-10
   27.9589195         1.02835929E-09
   28.0857124         1.20347976E-09
   28.2125034         1.33905975E-09
   28.3392963         1.42453738E-09
   28.4660892         1.45093115E-09
   28.5928822         1.41147005E-09
   28.7196751         1.30216160E-09
   28.8464680         1.12226051E-09
   28.9732609         8.74601613E-10
   29.1000538         5.65764713E-10
   29.2268448         2.06042031E-10
   29.3536377        -1.90802998E-10
   29.4804306        -6.07997652E-10
   29.6072235        -1.02643127E-09
   29.7340164        -1.42551959E-09
   29.8608093        -1.78422732E-09
   29.9876022        -2.08220108E-09
   30.1143932        -2.30095765E-09
   30.2411861        -2.42506037E-09
   30.3679790        -2.44321141E-09
   30.4947720        -2.34918951E-09
   30.6215649        -2.14256013E-09
   30.7483578        -1.82909887E-09
   30.8751507        -1.42088175E-09
   31.0019417        -9.36001943E-10
   31.1287346        -3.97908401E-10
   31.2555275         1.65631092E-10
   31.3823204         7.23896831E-10
   31.5091133         1.24486843E-09
   31.6359062         1.69707748E-09
   31.7626991         2.05155892E-09
   31.8894920         2.28379471E-09
   32.0162849         2.37552999E-09
   32.1430779         2.31633734E-09
   32.2698708         2.10482343E-09
   32.3966637         1.74937298E-09
   32.5234528         1.26835109E-09
   32.6502457         6.89720947E-10
   32.7770386         5.00521048E-11
   32.9038315        -6.07062955E-10
   33.0306244        -1.23312482E-09
   33.1574173        -1.77729542E-09
   33.2842102        -2.18929097E-09
   33.4110031        -2.42245779E-09
   33.5377960        -2.43687404E-09
   33.6645889        -2.20227347E-09
   33.7913818        -1.70066361E-09
   33.9181747        -9.28426058E-10
   34.0449677         1.02215660E-10
   34.1717606         1.36248068E-09
   34.2985535         2.80717227E-09
   34.4253426         4.37567405E-09
   34.5521355         5.99383831E-09
   34.6789284         7.57666907E-09
   34.8057213         9.03174335E-09
   34.9325142         1.02631974E-08
   35.0593071         1.11761276E-08
   35.1861000         1.16811893E-08
   35.3128929         1.16991909E-08
   35.4396858         1.11654552E-08
   35.5664787         1.00337383E-08
   35.6932716         8.27949531E-09
   35.8200645         5.90234572E-09
   35.9468575         2.92757707E-09
   36.0736504        -5.93383176E-10
   36.2004433        -4.58357663E-09
   36.3272324        -8.94221319E-09
   36.4540253        -1.35473801E-08
   36.5808182        -1.82596835E-08
   36.7076111        -2.29266615E-08
   36.8344040        -2.73878200E-08
   36.9611969        -3.14800559E-08
   37.0879898        -3.50433034E-08
   37.2147827        -3.79261422E-08
   37.3415756        -3.99911784E-08
   37.4683685        -4.11199714E-08
   37.5951614        -4.12174046E-08
   37.7219543        -4.02152303E-08
   37.8487473        -3.80748268E-08
   37.9755402        -3.47889610E-08
   38.1023293        -3.03826084E-08
   38.2291222        -2.49127723E-08
   38.3559151        -1.84673699E-08
   38.4827080        -1.11632428E-08
   38.6095009        -3.14337067E-09
   38.7362938         5.42659562E-09
   38.8630867         1.43623415E-08
   38.9898796         2.34653239E-08
   39.1166725         3.25275131E-08
   39.2434654         4.13362571E-08
   39.3702583         4.96792083E-08
   39.4970512         5.73491690E-08
   39.6238441         6.41487290E-08
   39.7506371         6.98946963E-08
   39.8774300         7.44221609E-08
   40.0042191         7.75881759E-08
   40.1310120         7.92750612E-08
   40.2578049         7.93932387E-08
   40.3845978         7.78836196E-08
   40.5113907         7.47194875E-08
   40.6381836         6.99079123E-08
   40.7649765         6.34906456E-08
   40.8917694         5.55444188E-08
   41.0185623         4.61806913E-08
   41.1453552         3.55447192E-08
   41.2721481         2.38139073E-08
   41.3989410         1.11953238E-08
   41.5257339        -2.07767670E-09
   41.6525269        -1.57498192E-08
   41.7793198        -2.95493905E-08
   41.9061089        -4.31948628E-08
   42.0329018        -5.64027758E-08
   42.1596947        -6.88968669E-08
   42.2864876        -8.04184523E-08
   42.4132805        -9.07380269E-08
   42.5400734        -9.96679788E-08
   42.6668663        -1.07076296E-07
   42.7936592        -1.12900914E-07
   42.9204521        -1.17164767E-07
   43.0472450        -1.19990801E-07
   43.1740379        -1.21617063E-07
   43.3008308        -1.22411038E-07
   43.4276237        -1.22883193E-07
   43.5544167        -1.23699067E-07
   43.6812096        -1.25689425E-07
   43.8079987        -1.29858250E-07
   43.9347916        -1.37387900E-07
   44.0615845        -1.49641139E-07
   44.1883774        -1.68159659E-07
   44.3151703        -1.94658710E-07
   44.4419632        -2.31017310E-07
   44.5687561        -2.79264327E-07
   44.6955490        -3.41559740E-07
   44.8223419        -4.20171176E-07
   44.9491348        -5.17445358E-07
   45.0759277        -6.35775223E-07
   45.2027206        -7.77562263E-07
   45.3295135        -9.45174179E-07
   45.4563065        -1.14089880E-06
   45.5830994        -1.36689459E-06
   45.7098885        -1.62513788E-06
   45.8366814        -1.91736899E-06
   45.9634743        -2.24503538E-06
   46.0902672        -2.60923730E-06
   46.2170601        -3.01067212E-06
   46.3438530        -3.44958471E-06
   46.4706459        -3.92571701E-06
   46.5974388        -4.43826775E-06
   46.7242317        -4.98585769E-06
   46.8510246        -5.56650502E-06
   46.9778175        -6.17760816E-06
   47.1046104        -6.81594611E-06
   47.2314034        -7.47768672E-06
   47.3581963        -8.15841304E-06
   47.4849892        -8.85316331E-06
   47.6117783        -9.55648920E-06
   47.7385712        -1.02625290E-05
   47.8653641        -1.09650919E-05
   47.9921570        -1.16577612E-05
   48.1189499        -1.23340133E-05
   48.2457428        -1.29873370E-05
   48.3725357        -1.36113749E-05
   48.4993286        -1.42000608E-05
   48.6261215        -1.47477613E-05
   48.7529144        -1.52494167E-05
   48.8797073        -1.57006762E-05
   49.0065002        -1.60980217E-05
   49.1332932        -1.64388821E-05
   49.2600861        -1.67217258E-05
   49.3868790        -1.69461327E-05
   49.5136681        -1.71128468E-05
   49.6404610        -1.72237942E-05
   49.7672539        -1.72820837E-05
   49.8940468        -1.72919608E-05
   50.0208397        -1.72587534E-05
   50.1476326        -1.71887659E-05
   50.2744255        -1.70891672E-05
   50.4012184        -1.69678424E-05
   50.5280113        -1.68332117E-05
   50.6548042        -1.66940627E-05
   50.7815971        -1.65593301E-05
   50.9083900        -1.64379053E-05
   51.0351830        -1.63384193E-05
   51.1619759        -1.62690376E-05
   51.2887688        -1.62372635E-05
   51.4155579        -1.62497545E-05
   51.5423508        -1.63121676E-05
   51.6691437        -1.64290104E-05
   51.7959366        -1.66035425E-05
   51.9227295        -1.68376901E-05
   52.0495224        -1.71320025E-05
   52.1763153        -1.74856359E-05
   52.3031082        -1.78963837E-05
   52.4299011        -1.83607244E-05
   52.5566940        -1.88739086E-05
   52.6834869        -1.94300756E-05
   52.8102798        -2.00223822E-05
   52.9370728        -2.06431705E-05
   53.0638657        -2.12841296E-05
   53.1906586        -2.19364920E-05
   53.3174477        -2.25912117E-05
   53.4442406        -2.32391576E-05
   53.5710335        -2.38712964E-05
   53.6978264        -2.44788771E-05
   53.8246193        -2.50535904E-05
   53.9514122        -2.55877221E-05
   54.0782051        -2.60742854E-05
   54.2049980        -2.65071412E-05
   54.3317909        -2.68810818E-05
   54.4585838        -2.71919180E-05
   54.5853767        -2.74365266E-05
   54.7121696        -2.76128831E-05
   54.8389626        -2.77200852E-05
   54.9657555        -2.77583404E-05
   55.0925484        -2.77289528E-05
   55.2193375        -2.76342944E-05
   55.3461304        -2.74777540E-05
   55.4729233        -2.72636753E-05
   55.5997162        -2.69972988E-05
   55.7265091        -2.66846764E-05
   55.8533020        -2.63325819E-05
   55.9800949        -2.59484168E-05
   56.1068878        -2.55401119E-05
   56.2336807        -2.51160072E-05
   56.3604736        -2.46847339E-05
   56.4872665        -2.42550941E-05
   56.6140594        -2.38359262E-05
   56.7408524        -2.34359668E-05
   56.8676453        -2.30637197E-05
   56.9944382        -2.27273049E-05
   57.1212273        -2.24343275E-05
   57.2480202        -2.21917453E-05
   57.3748131        -2.20057318E-05
   57.5016060        -2.18815640E-05
   57.6283989        -2.18235182E-05
   57.7551918        -2.18347814E-05
   57.8819847        -2.19173799E-05
   58.0087776        -2.20721449E-05
   58.1355705        -2.22986801E-05
   58.2623634        -2.25953809E-05
   58.3891563        -2.29594643E-05
   58.5159492        -2.33870323E-05
   58.6427422        -2.38731645E-05
   58.7695351        -2.44120311E-05
   58.8963280        -2.49970308E-05
   59.0231171        -2.56209460E-05
   59.1499100        -2.62761132E-05
   59.2767029        -2.69545926E-05
   59.4034958        -2.76483552E-05
   59.5302887        -2.83494392E-05
   59.6570816        -2.90501321E-05
   59.7838745        -2.97430943E-05
   59.9106674        -3.04214955E-05
   60.0374603        -3.10791038E-05
   60.1642532        -3.17103440E-05
   60.2910461        -3.23103413E-05
   60.4178391        -3.28749047E-05
   60.5446320        -3.34005053E-05
   60.6714249        -3.38842037E-05
   60.7982178        -3.43235442E-05
   60.9250069        -3.47164714E-05
   61.0517998        -3.50611663E-05
   61.1785927        -3.53559408E-05
   61.3053856        -3.55990924E-05
   61.4321785        -3.57887766E-05
   61.5589714        -3.59228980E-05
   61.6857643        -3.59990445E-05
   61.8125572        -3.60144113E-05
   61.9393501        -3.59658261E-05
   62.0661430        -3.58497418E-05
   62.1929359        -3.56623459E-05
   62.3197289        -3.53996475E-05
   62.4465218        -3.50576665E-05
   62.5733147        -3.46326269E-05
   62.7001076        -3.41211671E-05
   62.8268967        -3.35206241E-05
   62.9536896        -3.28292917E-05
   63.0804825        -3.20466861E-05
   63.2072754        -3.11738113E-05
   63.3340683        -3.02134104E-05
   63.4608612        -2.91701581E-05
   63.5876541        -2.80508393E-05
   63.7144470        -2.68644453E-05
   63.8412399        -2.56222265E-05
   63.9680328        -2.43376671E-05
   64.0948257        -2.30263886E-05
   64.2216187        -2.17059733E-05
   64.3484116        -2.03957225E-05
   64.4752045        -1.91163381E-05
   64.6019974        -1.78895498E-05
   64.7287903        -1.67376802E-05
   64.8555832        -1.56831793E-05
   64.9823761        -1.47481223E-05
   65.1091690        -1.39537015E-05
   65.2359619        -1.33197218E-05
   65.3627548        -1.28641141E-05
   65.4895477        -1.26024825E-05
   65.6163330        -1.25477109E-05
   65.7431259        -1.27096200E-05
   65.8699188        -1.30947128E-05
   65.9967117        -1.37059951E-05
   66.1235046        -1.45428930E-05
   66.2502975        -1.56012538E-05
   66.3770905        -1.68734477E-05
   66.5038834        -1.83485645E-05
   66.6306763        -2.00126706E-05
   66.7574692        -2.18491587E-05
   66.8842621        -2.38391567E-05
   67.0110550        -2.59619737E-05
   67.1378479        -2.81955818E-05
   67.2646408        -3.05171197E-05
   67.3914337        -3.29033755E-05
   67.5182266        -3.53312862E-05
   67.6450195        -3.77783508E-05
   67.7718124        -4.02230362E-05
   67.8986053        -4.26451261E-05
   68.0253983        -4.50259613E-05
   68.1521912        -4.73486325E-05
   68.2789841        -4.95980967E-05
   68.4057770        -5.17611988E-05
   68.5325699        -5.38266358E-05
   68.6593628        -5.57848143E-05
   68.7861557        -5.76276943E-05
   68.9129486        -5.93485456E-05
   69.0397415        -6.09416966E-05
   69.1665344        -6.24022287E-05
   69.2933273        -6.37257181E-05
   69.4201126        -6.49079229E-05
   69.5469055        -6.59445504E-05
   69.6736984        -6.68310386E-05
   69.8004913        -6.75623887E-05
   69.9272842        -6.81331076E-05
   70.0540771        -6.85370978E-05
   70.1808701        -6.87677966E-05
   70.3076630        -6.88182336E-05
   70.4344559        -6.86812346E-05
   70.5612488        -6.83497128E-05
   70.6880417        -6.78169308E-05
   70.8148346        -6.70769077E-05
   70.9416275        -6.61248123E-05
   71.0684204        -6.49573412E-05
   71.1952133        -6.35731703E-05
   71.3220062        -6.19733255E-05
   71.4487991        -6.01615902E-05
   71.5755920        -5.81447784E-05
   71.7023849        -5.59330183E-05
   71.8291779        -5.35399486E-05
   71.9559708        -5.09827805E-05
   72.0827637        -4.82823452E-05
   72.2095566        -4.54630026E-05
   72.3363495        -4.25524595E-05
   72.4631424        -3.95815005E-05
   72.5899353        -3.65836568E-05
   72.7167282        -3.35947661E-05
   72.8435211        -3.06524780E-05
   72.9703140        -2.77957224E-05
   73.0971069        -2.50641060E-05
   73.2238922        -2.24973173E-05
   73.3506851        -2.01344956E-05
   73.4774780        -1.80136121E-05
   73.6042709        -1.61708649E-05
   73.7310638        -1.46401107E-05
   73.8578568        -1.34523179E-05
   73.9846497        -1.26350815E-05
   74.1114426        -1.22121901E-05
   74.2382355        -1.22032425E-05
   74.3650284        -1.26233390E-05
   74.4918213        -1.34828288E-05
   74.6186142        -1.47871206E-05
   74.7454071        -1.65365600E-05
   74.8722000        -1.87263649E-05
   74.9989929        -2.13466210E-05
   75.1257858        -2.43823379E-05
   75.2525787        -2.78135522E-05
   75.3793716        -3.16154910E-05
   75.5061646        -3.57587815E-05
   75.6329575        -4.02097103E-05
   75.7597504        -4.49305444E-05
   75.8865433        -4.98798545E-05
   76.0133362        -5.50129516E-05
   76.1401291        -6.02822765E-05
   76.2669220        -6.56379270E-05
   76.3937149        -7.10281092E-05
   76.5205078        -7.63997086E-05
   76.6473007        -8.16988613E-05
   76.7740936        -8.68714706E-05
   76.9008865        -9.18638107E-05
   77.0276718        -9.66230946E-05
   77.1544647        -1.01098034E-04
   77.2812576        -1.05239356E-04
   77.4080505        -1.09000321E-04
   77.5348434        -1.12337148E-04
   77.6616364        -1.15209426E-04
   77.7884293        -1.17580479E-04
   77.9152222        -1.19417615E-04
   78.0420151        -1.20692377E-04
   78.1688080        -1.21380661E-04
   78.2956009        -1.21462836E-04
   78.4223938        -1.20923760E-04
   78.5491867        -1.19752767E-04
   78.6759796        -1.17943600E-04
   78.8027725        -1.15494317E-04
   78.9295654        -1.12407201E-04
   79.0563583        -1.08688597E-04
   79.1831512        -1.04348786E-04
   79.3099442        -9.94018992E-05
   79.4367371        -9.38657831E-05
   79.5635300        -8.77619095E-05
   79.6903229        -8.11153295E-05
   79.8171158        -7.39546304E-05
   79.9439087        -6.63118990E-05
   80.0707016        -5.82226894E-05
   80.1974945        -4.97260444E-05
   80.3242874        -4.08644410E-05
   80.4510803        -3.16837359E-05
   80.5778732        -2.22330546E-05
   80.7046585        -1.25646702E-05
   80.8314514        -2.73375827E-06
   80.9582443         7.20190474E-06
   81.0850372         1.71823267E-05
   81.2118301         2.71458048E-05
   81.3386230         3.70295238E-05
   81.4654160         4.67702193E-05
   81.5922089         5.63049834E-05
   81.7190018         6.55720942E-05
   81.8457947         7.45119687E-05
   81.9725876         8.30680947E-05
   82.0993805         9.11880270E-05
   82.2261734         9.88243410E-05
   82.3529663         1.05935549E-04
   82.4797592         1.12486945E-04
   82.6065521         1.18451389E-04
   82.7333450         1.23809819E-04
   82.8601379         1.28551794E-04
   82.9869308         1.32675690E-04
   83.1137238         1.36188784E-04
   83.2405167         1.39107069E-04
   83.3673096         1.41454919E-04
   83.4941025         1.43264435E-04
   83.6208954         1.44574689E-04
   83.7476883         1.45430720E-04
   83.8744812         1.45882368E-04
   84.0012741         1.45982951E-04
   84.1280670         1.45787955E-04
   84.2548599         1.45353508E-04
   84.3816528         1.44734906E-04
   84.5084381         1.43985279E-04
   84.6352310         1.43154117E-04
   84.7620239         1.42286095E-04
   84.8888168         1.41419921E-04
   85.0156097         1.40587552E-04
   85.1424026         1.39813390E-04
   85.2691956         1.39113879E-04
   85.3959885         1.38497388E-04
   85.5227814         1.37964118E-04
   85.6495743         1.37506562E-04
   85.7763672         1.37109950E-04
   85.9031601         1.36753020E-04
   86.0299530         1.36408999E-04
   86.1567459         1.36046670E-04
   86.2835388         1.35631621E-04
   86.4103317         1.35127499E-04
   86.5371246         1.34497357E-04
   86.6639175         1.33705005E-04
   86.7907104         1.32716246E-04
   86.9175034         1.31500085E-04
   87.0442963         1.30029817E-04
   87.1710892         1.28283951E-04
   87.2978821         1.26246974E-04
   87.4246750         1.23909922E-04
   87.5514679         1.21270758E-04
   87.6782608         1.18334603E-04
   87.8050537         1.15113668E-04
   87.9318466         1.11627123E-04
   88.0586395         1.07900683E-04
   88.1854324         1.03966093E-04
   88.3122177         9.98604664E-05
   88.4390106         9.56254953E-05
   88.5658035         9.13065596E-05
   88.6925964         8.69518044E-05
   88.8193893         8.26111354E-05
   88.9461823         7.83351861E-05
   89.0729752         7.41743133E-05
   89.1997681         7.01776225E-05
   89.3265610         6.63920291E-05
   89.4533539         6.28613707E-05
   89.5801468         5.96256032E-05
   89.7069397         5.67201168E-05
   89.8337326         5.41751251E-05
   89.9605255         5.20152062E-05
   90.0873184         5.02589392E-05
   90.2141113         4.89187005E-05
   90.3409042         4.80005656E-05
   90.4676971         4.75043526E-05
   90.5944901         4.74238150E-05
   90.7212830         4.77469257E-05
   90.8480759         4.84562697E-05
   90.9748688         4.95296008E-05
   91.1016617         5.09403908E-05
   91.2284546         5.26585245E-05
   91.3552475         5.46510055E-05
   91.4820404         5.68827127E-05
   91.6088333         5.93171389E-05
   91.7356262         6.19171697E-05
   91.8624191         6.46457993E-05
   91.9892120         6.74667535E-05
   92.1159973         7.03451587E-05
   92.2427902         7.32479966E-05
   92.3695831         7.61445554E-05
   92.4963760         7.90067643E-05
   92.6231689         8.18093831E-05
   92.7499619         8.45301111E-05
   92.8767548         8.71496304E-05
   93.0035477         8.96514684E-05
   93.1303406         9.20218663E-05
   93.2571335         9.42495244E-05
   93.3839264         9.63252896E-05
   93.5107193         9.82418642E-05
   93.6375122         9.99934273E-05
   93.7643051         1.01575271E-04
   93.8910980         1.02983518E-04
   94.0178909         1.04214749E-04
   94.1446838         1.05265790E-04
   94.2714767         1.06133513E-04
   94.3982697         1.06814696E-04
   94.5250626         1.07305939E-04
   94.6518555         1.07603722E-04
   94.7786484         1.07704458E-04
   94.9054413         1.07604596E-04
   95.0322342         1.07300861E-04
   95.1590271         1.06790438E-04
   95.2858200         1.06071275E-04
   95.4126129         1.05142281E-04
   95.5394058         1.04003615E-04
   95.6661987         1.02656915E-04
   95.7929916         1.01105470E-04
   95.9197769         9.93543581E-05
   96.0465698         9.74105424E-05
   96.1733627         9.52828414E-05
   96.3001556         9.29818998E-05
   96.4269485         9.05200068E-05
   96.5537415         8.79108920E-05
   96.6805344         8.51694640E-05
   96.8073273         8.23114678E-05
   96.9341202         7.93530926E-05
   97.0609131         7.63106000E-05
   97.1877060         7.31999098E-05
   97.3144989         7.00362434E-05
   97.4412918         6.68337525E-05
   97.5680847         6.36051918E-05
   97.6948776         6.03617518E-05
   97.8216705         5.71128294E-05
   97.9484634         5.38660206E-05
   98.0752563         5.06271172E-05