  -4.50000000         0.00000000    
  -4.37320757         0.00000000    
  -4.24641466         0.00000000    
  -4.11962223         0.00000000    
  -3.99282932         0.00000000    
  -3.86603665         0.00000000    
  -3.73924398         0.00000000    
  -3.61245155        -6.19384289E-31
  -3.48565888        -2.19611535E-30
  -3.35886621        -1.40104016E-29
  -3.23207355        -4.50333579E-29
  -3.10528088         1.07417719E-28
  -2.97848821         1.05365461E-27
  -2.85169554         3.41111198E-27
  -2.72490287         4.85115560E-27
  -2.59811020        -7.62069833E-27
  -2.47131753        -6.73727457E-26
  -2.34452486        -2.21836832E-25
  -2.21773219        -4.68516867E-25
  -2.09093952        -5.81577299E-25
  -1.96414697         1.69409938E-25
  -1.83735430         3.23288097E-24
  -1.71056163         1.04549676E-23
  -1.58376896         2.25271333E-23
  -1.45697629         3.57341968E-23
  -1.33018374         3.77350478E-23
  -1.20339108         5.43963336E-24
  -1.07659841        -8.93402898E-23
 -0.949805737        -2.60185436E-22
 -0.823013067        -4.70639212E-22
 -0.696220458        -5.93288882E-22
 -0.569427788        -3.90597497E-22
 -0.442635119         4.42085376E-22
 -0.315842479         2.13610891E-21
 -0.189049825         4.61370044E-21
  -6.22571707E-02     7.22929602E-21
   6.45354837E-02     8.64272635E-21
  0.191328138         7.02577243E-21
  0.318120778         7.57109367E-22
  0.444913447        -1.04180215E-20
  0.571706116        -2.40815799E-20
  0.698498726        -3.43234685E-20
  0.825291395        -3.22163164E-20
  0.952084064        -8.24597208E-21
   1.07887673         4.32099377E-20
   1.20566940         1.18202029E-19
   1.33246195         1.98221607E-19
   1.45925462         2.48523572E-19
   1.58604729         2.22306702E-19
   1.71283996         7.21118480E-20
   1.83963263        -2.32458974E-19
   1.96642530        -6.84416787E-19
   2.09321785        -1.22259528E-18
   2.22001052        -1.72546857E-18
   2.34680319        -2.02123175E-18
   2.47359586        -1.91591532E-18
   2.60038853        -1.23586843E-18
   2.72718120         1.24147596E-19
   2.85397387         2.15851706E-18
   2.98076653         4.72345276E-18
   3.10755920         7.52826671E-18
   3.23435187         1.01408704E-17
   3.36114454         1.19980157E-17
   3.48793697         1.24133340E-17
   3.61472964         1.05893958E-17
   3.74152231         5.66172332E-18
   3.86831498        -3.17571553E-18
   3.99510765        -1.64068396E-17
   4.12190056        -3.37580051E-17
   4.24869299        -5.36207821E-17
   4.37548542        -7.24630267E-17
   4.50227833        -8.44716114E-17
   4.62907076        -8.17536084E-17
   4.75586367        -5.54220275E-17
   4.88265610         2.24028303E-18
   5.00944901         9.46277945E-17
   5.13624144         2.17162969E-16
   5.26303434         3.54076871E-16
   5.38982677         4.76872032E-16
   5.51661968         5.45775250E-16
   5.64341211         5.15144422E-16
   5.77020502         3.43007686E-16
   5.89699745         3.75967237E-18
   6.02379036        -4.98238120E-16
   6.15058279        -1.11748178E-15
   6.27737522        -1.76237465E-15
   6.40416813        -2.29987127E-15
   6.53096056        -2.57160240E-15
   6.65775347        -2.42096564E-15
   6.78454590        -1.72778956E-15
   6.91133881        -4.44435223E-16
   7.03813124         1.37463251E-15
   7.16492414         3.55805041E-15
   7.29171658         5.82420871E-15
   7.41850948         7.81256688E-15
   7.54530191         9.13818531E-15
   7.67209482         9.46288522E-15
   7.79888725         8.57212928E-15
   7.92567968         6.44395731E-15
   8.05247211         3.29605825E-15
   8.17926502        -4.00799765E-16
   8.30605793        -3.95034017E-15
   8.43285084        -6.50102996E-15
   8.55964279        -7.15462896E-15
   8.68643570        -5.10327398E-15
   8.81322861         2.18668980E-16
   8.94002151         8.98404225E-15
   9.06681347         2.08402885E-14
   9.19360638         3.48106519E-14
   9.32039928         4.92433785E-14
   9.44719219         6.18206116E-14
   9.57398415         6.96355679E-14
   9.70077705         6.93429079E-14
   9.82756996         5.73823487E-14
   9.95436192         3.02696846E-14
   10.0811548        -1.50573151E-14
   10.2079477        -8.08577787E-14
   10.3347406        -1.68198192E-13
   10.4615326        -2.76585964E-13
   10.5883255        -4.03661073E-13
   10.7151184        -5.44979209E-13
   10.8419113        -6.93915303E-13
   10.9687033        -8.41707997E-13
   11.0954962        -9.77651770E-13
   11.2222891        -1.08943095E-12
   11.3490820        -1.16357184E-12
   11.4758739        -1.18597981E-12
   11.6026669        -1.14251469E-12
   11.7294598        -1.01955738E-12
   11.8562517        -8.04527777E-13
   11.9830446        -4.86323492E-13
   12.1098375        -5.56787316E-14
   12.2366304         4.94534860E-13
   12.3634224         1.16900478E-12
   12.4902153         1.96959398E-12
   12.6170082         2.89476798E-12
   12.7438011         3.93874039E-12
   12.8705931         5.09024203E-12
   12.9973860         6.33087029E-12
   13.1241789         7.63302095E-12
   13.2509708         8.95747452E-12
   13.3777637         1.02507733E-11
   13.5045567         1.14426168E-11
   13.6313496         1.24435306E-11
   13.7581415         1.31431740E-11
   13.8849344         1.34096336E-11
   14.0117273         1.30901609E-11
   14.1385202         1.20137702E-11
   14.2653122         9.99619224E-12
   14.3921051         6.84760668E-12
   14.5188980         2.38361089E-12
   14.6456909        -3.56033107E-12
   14.7724829        -1.11107998E-11
   14.8992758        -2.03348796E-11
   15.0260687        -3.12156898E-11
   15.1528606        -4.36260299E-11
   15.2796535        -5.73016461E-11
   15.4064465        -7.18162821E-11
   15.5332394        -8.65610847E-11
   15.6600313        -1.00731416E-10
   15.7868242        -1.13324350E-10
   15.9136171        -1.23150004E-10
   16.0404091        -1.28859784E-10
   16.1672020        -1.28993399E-10
   16.2939949        -1.22046498E-10
   16.4207878        -1.06558234E-10
   16.5475807        -8.12174772E-11
   16.6743736        -4.49844155E-11
   16.8011646         2.77787884E-12
   16.9279575         6.21685065E-11
   17.0547504         1.32618846E-10
   17.1815434         2.12777504E-10
   17.3083363         3.00420105E-10
   17.4351292         3.92394700E-10
   17.5619221         4.84613072E-10
   17.6887150         5.72096204E-10
   17.8155060         6.49081733E-10
   17.9422989         7.09197645E-10
   18.0690918         7.45702999E-10
   18.1958847         7.51793683E-10
   18.3226776         7.20965954E-10
   18.4494705         6.47426668E-10
   18.5762634         5.26534927E-10
   18.7030544         3.55254798E-10
   18.8298473         1.32596198E-10
   18.9566402        -1.39981998E-10
   19.0834332        -4.58234700E-10
   19.2102261        -8.14885992E-10
   19.3370190        -1.19950461E-09
   19.4638119        -1.59852231E-09
   19.5906048        -1.99541517E-09
   19.7173958        -2.37105979E-09
   19.8441887        -2.70427014E-09
   19.9709816        -2.97251290E-09
   20.0977745        -3.15278803E-09
   20.2245674        -3.22265348E-09
   20.3513603        -3.16136273E-09
   20.4781532        -2.95107472E-09
   20.6049442        -2.57808819E-09
   20.7317371        -2.03404693E-09
   20.8585300        -1.31705569E-09
   20.9853230        -4.32643532E-10
   21.1121159         6.05481831E-10
   21.2389088         1.77495485E-09
   21.3657017         3.04459458E-09
   21.4924946         4.37462155E-09
   21.6192856         5.71727465E-09
   21.7460785         7.01785785E-09
   21.8728714         8.21620993E-09
   21.9996643         9.24859478E-09
   22.1264572         1.00499662E-08
   22.2532501         1.05565672E-08
   22.3800430         1.07087725E-08
   22.5068340         1.04540927E-08
   22.6336269         9.75022729E-09
   22.7604198         8.56804228E-09
   22.8872128         6.89432156E-09
   23.0140057         4.73418105E-09
   23.1407986         2.11297446E-09
   23.2675915        -9.22421917E-10
   23.3943844        -4.30307789E-09
   23.5211754        -7.93833177E-09
   23.6479683        -1.17170380E-08
   23.7747612        -1.55097908E-08
   23.9015541        -1.91721323E-08
   24.0283470        -2.25487025E-08
   24.1551399        -2.54782648E-08
   24.2819328        -2.77994978E-08
   24.4087238        -2.93573468E-08
   24.5355167        -3.00098044E-08
   24.6623096        -2.96347942E-08
   24.7891026        -2.81369434E-08
   24.9158955        -2.54539501E-08
   25.0426884        -2.15622187E-08
   25.1694813        -1.64814828E-08
   25.2962742        -1.02781303E-08
   25.4230652        -3.06697800E-09
   25.5498581         4.98872454E-09
   25.6766510         1.36791991E-08
   25.8034439         2.27520545E-08
   25.9302368         3.19182192E-08
   26.0570297         4.08597955E-08
   26.1838226         4.92397199E-08
   26.3106136         5.67129383E-08
   26.4374065         6.29387529E-08
   26.5641994         6.75940228E-08
   26.6909924         7.03865908E-08
   26.8177853         7.10685910E-08
   26.9445782         6.94489444E-08
   27.0713711         6.54045493E-08
   27.1981640         5.88896754E-08
   27.3249550         4.99428907E-08
   27.4517479         3.86913150E-08
   27.5785408         2.53516408E-08
   27.7053337         1.02278142E-08
   27.8321266        -6.29480912E-09
   27.9589195        -2.37587710E-08
   28.0857124        -4.16471480E-08
   28.2125034        -5.93991807E-08
   28.3392963        -7.64284280E-08
   28.4660892        -9.21428907E-08
   28.5928822        -1.05966357E-07
   28.7196751        -1.17360180E-07
   28.8464680        -1.25844679E-07
   28.9732609        -1.31019249E-07
   29.1000538        -1.32580126E-07
   29.2268448        -1.30335479E-07
   29.3536377        -1.24216371E-07
   29.4804306        -1.14283587E-07
   29.6072235        -1.00729565E-07
   29.7340164        -8.38751149E-08
   29.8608093        -6.41610356E-08
   29.9876022        -4.21345625E-08
   30.1143932        -1.84311943E-08
   30.2411861         6.24765484E-09
   30.3679790         3.11602903E-08
   30.4947720         5.55527784E-08
   30.6215649         7.86881174E-08
   30.7483578         9.98755283E-08
   30.8751507         1.18498384E-07
   31.0019417         1.34039681E-07
   31.1287346         1.46103631E-07
   31.2555275         1.54432598E-07
   31.3823204         1.58918098E-07
   31.5091133         1.59605563E-07
   31.6359062         1.56692181E-07
   31.7626991         1.50517835E-07
   31.8894920         1.41549464E-07
   32.0162849         1.30359084E-07
   32.1430779         1.17596691E-07
   32.2698708         1.03959003E-07
   32.3966637         9.01552610E-08
   32.5234528         7.68718635E-08
   32.6502457         6.47373994E-08
   32.7770386         5.42896181E-08
   32.9038315         4.59460914E-08
   33.0306244         3.99800086E-08
   33.1574173         3.65023674E-08
   33.2842102         3.54515848E-08
   33.4110031         3.65912065E-08
   33.5377960         3.95160278E-08
   33.6645889         4.36665957E-08
   33.7913818         4.83514384E-08
   33.9181747         5.27764641E-08
   34.0449677         5.60801006E-08
   34.1717606         5.73725742E-08
   34.2985535         5.57778925E-08
   34.4253426         5.04764408E-08
   34.5521355         4.07462828E-08
   34.6789284         2.60011124E-08
   34.8057213         5.82341197E-09
   34.9325142        -2.00095069E-08
   35.0593071        -5.15068876E-08
   35.1861000        -8.84551383E-08
   35.3128929        -1.30417703E-07
   35.4396858        -1.76744180E-07
   35.5664787        -2.26588440E-07
   35.6932716        -2.78934948E-07
   35.8200645        -3.32631600E-07
   35.9468575        -3.86427445E-07
   36.0736504        -4.39013718E-07
   36.2004433        -4.89065485E-07
   36.3272324        -5.35281686E-07
   36.4540253        -5.76422167E-07
   36.5808182        -6.11338351E-07
   36.7076111        -6.38997278E-07
   36.8344040        -6.58496560E-07
   36.9611969        -6.69070914E-07
   37.0879898        -6.70087957E-07
   37.2147827        -6.61036324E-07
   37.3415756        -6.41505721E-07
   37.4683685        -6.11160772E-07
   37.5951614        -5.69711403E-07
   37.7219543        -5.16882039E-07
   37.8487473        -4.52383659E-07
   37.9755402        -3.75890210E-07
   38.1023293        -2.87025046E-07
   38.2291222        -1.85357905E-07
   38.3559151        -7.04164478E-08
   38.4827080         5.82853765E-08
   38.6095009         2.01202496E-07
   38.7362938         3.58695132E-07
   38.8630867         5.30948114E-07
   38.9898796         7.17874627E-07
   39.1166725         9.19006595E-07
   39.2434654         1.13337603E-06
   39.3702583         1.35939104E-06
   39.4970512         1.59471199E-06
   39.6238441         1.83613440E-06
   39.7506371         2.07948233E-06
   39.8774300         2.31952185E-06
   40.0042191         2.54989732E-06
   40.1310120         2.76309720E-06
   40.2578049         2.95045402E-06
   40.3845978         3.10218275E-06
   40.5113907         3.20745812E-06
   40.6381836         3.25453448E-06
   40.7649765         3.23090535E-06
   40.8917694         3.12350130E-06
   41.0185623         2.91892366E-06
   41.1453552         2.60370757E-06
   41.2721481         2.16460785E-06
   41.3989410         1.58889873E-06
   41.5257339         8.64683159E-07
   41.6525269        -1.88045419E-08
   41.7793198        -1.07090773E-06
   41.9061089        -2.29928014E-06
   42.0329018        -3.70965199E-06
   42.1596947        -5.30563648E-06
   42.2864876        -7.08858761E-06
   42.4132805        -9.05751403E-06
   42.5400734        -1.12090502E-05
   42.6668663        -1.35374994E-05
   42.7936592        -1.60349373E-05
   42.9204521        -1.86913730E-05
   43.0472450        -2.14949741E-05
   43.1740379        -2.44323601E-05
   43.3008308        -2.74889098E-05
   43.4276237        -3.06491311E-05
   43.5544167        -3.38970494E-05
   43.6812096        -3.72165960E-05
   43.8079987        -4.05920073E-05
   43.9347916        -4.40082149E-05
   44.0615845        -4.74511726E-05
   44.1883774        -5.09081656E-05
   44.3151703        -5.43680762E-05
   44.4419632        -5.78215622E-05
   44.5687561        -6.12611548E-05
   44.6955490        -6.46812987E-05
   44.8223419        -6.80782832E-05
   44.9491348        -7.14501148E-05
   45.0759277        -7.47962767E-05
   45.2027206        -7.81174458E-05
   45.3295135        -8.14151281E-05
   45.4563065        -8.46911862E-05
   45.5830994        -8.79474319E-05
   45.7098885        -9.11850875E-05
   45.8366814        -9.44043131E-05
   45.9634743        -9.76036972E-05
   46.0902672        -1.00779806E-04
   46.2170601        -1.03926788E-04
   46.3438530        -1.07036016E-04
   46.4706459        -1.10095825E-04
   46.5974388        -1.13091417E-04
   46.7242317        -1.16004798E-04
   46.8510246        -1.18814860E-04
   46.9778175        -1.21497644E-04
   47.1046104        -1.24026672E-04
   47.2314034        -1.26373401E-04
   47.3581963        -1.28507934E-04
   47.4849892        -1.30399596E-04
   47.6117783        -1.32017798E-04
   47.7385712        -1.33332956E-04
   47.8653641        -1.34317306E-04
   47.9921570        -1.34945891E-04
   48.1189499        -1.35197537E-04
   48.2457428        -1.35055641E-04
   48.3725357        -1.34509028E-04
   48.4993286        -1.33552690E-04
   48.6261215        -1.32188346E-04
   48.7529144        -1.30424902E-04
   48.8797073        -1.28278698E-04
   49.0065002        -1.25773644E-04
   49.1332932        -1.22941070E-04
   49.2600861        -1.19819451E-04
   49.3868790        -1.16453870E-04
   49.5136681        -1.12895345E-04
   49.6404610        -1.09199958E-04
   49.7672539        -1.05427840E-04
   49.8940468        -1.01641977E-04
   50.0208397        -9.79069810E-05
   50.1476326        -9.42877377E-05
   50.2744255        -9.08480724E-05
   50.4012184        -8.76493505E-05
   50.5280113        -8.47491610E-05
   50.6548042        -8.22001166E-05
   50.7815971        -8.00486669E-05
   50.9083900        -7.83341602E-05
   51.0351830        -7.70879560E-05
   51.1619759        -7.63328571E-05
   51.2887688        -7.60826661E-05
   51.4155579        -7.63419812E-05
   51.5423508        -7.71062041E-05
   51.6691437        -7.83617652E-05
   51.7959366        -8.00866110E-05
   51.9227295        -8.22507936E-05
   52.0495224        -8.48172713E-05
   52.1763153        -8.77429266E-05
   52.3031082        -9.09795417E-05
   52.4299011        -9.44750209E-05
   52.5566940        -9.81745688E-05
   52.6834869        -1.02021892E-04
   52.8102798        -1.05960426E-04
   52.9370728        -1.09934466E-04
   53.0638657        -1.13890201E-04
   53.1906586        -1.17776726E-04
   53.3174477        -1.21546851E-04
   53.4442406        -1.25157763E-04
   53.5710335        -1.28571599E-04
   53.6978264        -1.31755747E-04
   53.8246193        -1.34683112E-04
   53.9514122        -1.37332172E-04
   54.0782051        -1.39686817E-04
   54.2049980        -1.41736178E-04
   54.3317909        -1.43474303E-04
   54.4585838        -1.44899663E-04
   54.5853767        -1.46014703E-04
   54.7121696        -1.46825318E-04
   54.8389626        -1.47340237E-04
   54.9657555        -1.47570507E-04
   55.0925484        -1.47528961E-04
   55.2193375        -1.47229715E-04
   55.3461304        -1.46687729E-04
   55.4729233        -1.45918500E-04
   55.5997162        -1.44937731E-04
   55.7265091        -1.43761179E-04
   55.8533020        -1.42404519E-04
   55.9800949        -1.40883349E-04
   56.1068878        -1.39213182E-04
   56.2336807        -1.37409574E-04
   56.3604736        -1.35488270E-04
   56.4872665        -1.33465350E-04
   56.6140594        -1.31357461E-04
   56.7408524        -1.29181935E-04
   56.8676453        -1.26957020E-04
   56.9944382        -1.24701881E-04
   57.1212273        -1.22436846E-04
   57.2480202        -1.20183235E-04
   57.3748131        -1.17963398E-04
   57.5016060        -1.15800533E-04
   57.6283989        -1.13718474E-04
   57.7551918        -1.11741356E-04
   57.8819847        -1.09893306E-04
   58.0087776        -1.08197964E-04
   58.1355705        -1.06678017E-04
   58.2623634        -1.05354702E-04
   58.3891563        -1.04247301E-04
   58.5159492        -1.03372586E-04
   58.6427422        -1.02744336E-04
   58.7695351        -1.02372935E-04
   58.8963280        -1.02264945E-04
   59.0231171        -1.02422848E-04
   59.1499100        -1.02844788E-04
   59.2767029        -1.03524537E-04
   59.4034958        -1.04451457E-04
   59.5302887        -1.05610634E-04
   59.6570816        -1.06983156E-04
   59.7838745        -1.08546410E-04
   59.9106674        -1.10274559E-04
   60.0374603        -1.12139081E-04
   60.1642532        -1.14109360E-04
   60.2910461        -1.16153344E-04
   60.4178391        -1.18238240E-04
   60.5446320        -1.20331206E-04
   60.6714249        -1.22400030E-04
   60.7982178        -1.24413811E-04
   60.9250069        -1.26343541E-04
   61.0517998        -1.28162690E-04
   61.1785927        -1.29847627E-04
   61.3053856        -1.31378023E-04
   61.4321785        -1.32737143E-04
   61.5589714        -1.33911963E-04
   61.6857643        -1.34893402E-04
   61.8125572        -1.35676120E-04
   61.9393501        -1.36258575E-04
   62.0661430        -1.36642731E-04
   62.1929359        -1.36833900E-04
   62.3197289        -1.36840303E-04
   62.4465218        -1.36672868E-04
   62.5733147        -1.36344723E-04
   62.7001076        -1.35870825E-04
   62.8268967        -1.35267561E-04
   62.9536896        -1.34552363E-04
   63.0804825        -1.33743306E-04
   63.2072754        -1.32858768E-04
   63.3340683        -1.31917070E-04
   63.4608612        -1.30936227E-04
   63.5876541        -1.29933731E-04
   63.7144470        -1.28926273E-04
   63.8412399        -1.27929685E-04
   63.9680328        -1.26958723E-04
   64.0948257        -1.26027080E-04
   64.2216187        -1.25147300E-04
   64.3484116        -1.24330749E-04
   64.4752045        -1.23587626E-04
   64.6019974        -1.22927057E-04
   64.7287903        -1.22357029E-04
   64.8555832        -1.21884579E-04
   64.9823761        -1.21515790E-04
   65.1091690        -1.21255885E-04
   65.2359619        -1.21109355E-04
   65.3627548        -1.21080018E-04
   65.4895477        -1.21171171E-04
   65.6163330        -1.21385659E-04
   65.7431259        -1.21726014E-04
   65.8699188        -1.22194542E-04
   65.9967117        -1.22793514E-04
   66.1235046        -1.23525184E-04
   66.2502975        -1.24391954E-04
   66.3770905        -1.25396473E-04
   66.5038834        -1.26541650E-04
   66.6306763        -1.27830775E-04
   66.7574692        -1.29267501E-04
   66.8842621        -1.30855828E-04
   67.0110550        -1.32600078E-04
   67.1378479        -1.34504691E-04
   67.2646408        -1.36574177E-04
   67.3914337        -1.38812873E-04
   67.5182266        -1.41224606E-04
   67.6450195        -1.43812460E-04
   67.7718124        -1.46578372E-04
   67.8986053        -1.49522748E-04
   68.0253983        -1.52644076E-04
   68.1521912        -1.55938440E-04
   68.2789841        -1.59399133E-04
   68.4057770        -1.63016288E-04
   68.5325699        -1.66776488E-04
   68.6593628        -1.70662519E-04
   68.7861557        -1.74653178E-04
   68.9129486        -1.78723174E-04
   69.0397415        -1.82843185E-04
   69.1665344        -1.86980033E-04
   69.2933273        -1.91097002E-04
   69.4201126        -1.95154309E-04
   69.5469055        -1.99109738E-04
   69.6736984        -2.02919327E-04
   69.8004913        -2.06538316E-04
   69.9272842        -2.09922146E-04
   70.0540771        -2.13027466E-04
   70.1808701        -2.15813285E-04
   70.3076630        -2.18242145E-04
   70.4344559        -2.20281174E-04
   70.5612488        -2.21903247E-04
   70.6880417        -2.23087845E-04
   70.8148346        -2.23822019E-04
   70.9416275        -2.24100964E-04
   71.0684204        -2.23928582E-04
   71.1952133        -2.23317664E-04
   71.3220062        -2.22289949E-04
   71.4487991        -2.20875896E-04
   71.5755920        -2.19114154E-04
   71.7023849        -2.17050852E-04
   71.8291779        -2.14738626E-04
   71.9559708        -2.12235347E-04
   72.0827637        -2.09602847E-04
   72.2095566        -2.06905257E-04
   72.3363495        -2.04207521E-04
   72.4631424        -2.01573566E-04
   72.5899353        -1.99064685E-04
   72.7167282        -1.96737790E-04
   72.8435211        -1.94643973E-04
   72.9703140        -1.92826992E-04
   73.0971069        -1.91322135E-04
   73.2238922        -1.90155202E-04
   73.3506851        -1.89341838E-04
   73.4774780        -1.88887134E-04
   73.6042709        -1.88785576E-04
   73.7310638        -1.89021273E-04
   73.8578568        -1.89568513E-04
   73.9846497        -1.90392690E-04
   74.1114426        -1.91451370E-04
   74.2382355        -1.92695719E-04
   74.3650284        -1.94072083E-04
   74.4918213        -1.95523709E-04
   74.6186142        -1.96992492E-04
   74.7454071        -1.98420865E-04
   74.8722000        -1.99753529E-04
   74.9989929        -2.00939190E-04
   75.1257858        -2.01932024E-04
   75.2525787        -2.02693001E-04
   75.3793716        -2.03190997E-04
   75.5061646        -2.03403484E-04
   75.6329575        -2.03317017E-04
   75.7597504        -2.02927331E-04
   75.8865433        -2.02239084E-04
   76.0133362        -2.01265313E-04
   76.1401291        -2.00026610E-04
   76.2669220        -1.98549897E-04
   76.3937149        -1.96867084E-04
   76.5205078        -1.95013519E-04
   76.6473007        -1.93026295E-04
   76.7740936        -1.90942534E-04
   76.9008865        -1.88797654E-04
   77.0276718        -1.86623729E-04
   77.1544647        -1.84447985E-04
   77.2812576        -1.82291580E-04
   77.4080505        -1.80168499E-04
   77.5348434        -1.78084825E-04
   77.6616364        -1.76038433E-04
   77.7884293        -1.74018918E-04
   77.9152222        -1.72007916E-04
   78.0420151        -1.69979903E-04
   78.1688080        -1.67903112E-04
   78.2956009        -1.65741018E-04
   78.4223938        -1.63453908E-04
   78.5491867        -1.61000702E-04
   78.6759796        -1.58340961E-04
   78.8027725        -1.55436908E-04
   78.9295654        -1.52255452E-04
   79.0563583        -1.48770210E-04
   79.1831512        -1.44963255E-04
   79.3099442        -1.40826683E-04
   79.4367371        -1.36363946E-04
   79.5635300        -1.31590758E-04
   79.6903229        -1.26535640E-04
   79.8171158        -1.21240060E-04
   79.9439087        -1.15758128E-04
   80.0707016        -1.10155896E-04
   80.1974945        -1.04510145E-04
   80.3242874        -9.89069158E-05
   80.4510803        -9.34395721E-05
   80.5778732        -8.82066961E-05
   80.7046585        -8.33096419E-05
   80.8314514        -7.88500474E-05
   80.9582443        -7.49272222E-05
   81.0850372        -7.16355789E-05
   81.2118301        -6.90621237E-05
   81.3386230        -6.72841779E-05
   81.4654160        -6.63673054E-05
   81.5922089        -6.63635437E-05
   81.7190018        -6.73100585E-05
   81.8457947        -6.92281174E-05
   81.9725876        -7.21225442E-05
   82.0993805        -7.59815885E-05
   82.2261734        -8.07772667E-05
   82.3529663        -8.64660906E-05
   82.4797592        -9.29901944E-05
   82.6065521        -1.00278841E-04
   82.7333450        -1.08250213E-04
   82.8601379        -1.16813411E-04
   82.9869308        -1.25870662E-04
   83.1137238        -1.35319628E-04
   83.2405167        -1.45055717E-04
   83.3673096        -1.54974288E-04
   83.4941025        -1.64972953E-04
   83.6208954        -1.74953326E-04
   83.7476883        -1.84822929E-04
   83.8744812        -1.94496490E-04
   84.0012741        -2.03897129E-04
   84.1280670        -2.12957093E-04
   84.2548599        -2.21618146E-04
   84.3816528        -2.29831669E-04
   84.5084381        -2.37558314E-04
   84.6352310        -2.44767492E-04
   84.7620239        -2.51436490E-04
   84.8888168        -2.57549371E-04
   85.0156097        -2.63095833E-04
   85.1424026        -2.68069911E-04
   85.2691956        -2.72468547E-04
   85.3959885        -2.76290375E-04
   85.5227814        -2.79534434E-04
   85.6495743        -2.82199180E-04
   85.7763672        -2.84281647E-04
   85.9031601        -2.85776739E-04
   86.0299530        -2.86677096E-04
   86.1567459        -2.86972790E-04
   86.2835388        -2.86651950E-04
   86.4103317        -2.85700953E-04
   86.5371246        -2.84105627E-04
   86.6639175        -2.81851942E-04
   86.7907104        -2.78927648E-04
   86.9175034        -2.75323284E-04
   87.0442963        -2.71033903E-04
   87.1710892        -2.66060466E-04
   87.2978821        -2.60411180E-04
   87.4246750        -2.54102837E-04
   87.5514679        -2.47161835E-04
   87.6782608        -2.39625020E-04
   87.8050537        -2.31540078E-04
   87.9318466        -2.22965798E-04
   88.0586395        -2.13971740E-04
   88.1854324        -2.04637588E-04
   88.3122177        -1.95052125E-04
   88.4390106        -1.85311801E-04
   88.5658035        -1.75518871E-04
   88.6925964        -1.65779420E-04
   88.8193893        -1.56200869E-04
   88.9461823        -1.46889506E-04
   89.0729752        -1.37947747E-04
   89.1997681        -1.29471562E-04
   89.3265610        -1.21547731E-04
   89.4533539        -1.14251416E-04
   89.5801468        -1.07643878E-04
   89.7069397        -1.01770624E-04
   89.8337326        -9.66597945E-05
   89.9605255        -9.23210973E-05
   90.0873184        -8.87453061E-05
   90.2141113        -8.59041102E-05
   90.3409042        -8.37507032E-05
   90.4676971        -8.22208531E-05
   90.5944901        -8.12343787E-05
   90.7212830        -8.06973621E-05
   90.8480759        -8.05045784E-05
   90.9748688        -8.05423770E-05
   91.1016617        -8.06917888E-05
   91.2284546        -8.08318364E-05
   91.3552475        -8.08429395E-05
   91.4820404        -8.06102325E-05
   91.6088333        -8.00268099E-05
   91.7356262        -7.89966653E-05
   91.8624191        -7.74373766E-05
   91.9892120        -7.52823616E-05
   92.1159973        -7.24825659E-05
   92.2427902        -6.90078668E-05
   92.3695831        -6.48475980E-05
   92.4963760        -6.00107815E-05
   92.6231689        -5.45256153E-05
   92.7499619        -4.84384727E-05
   92.8767548        -4.18124037E-05
   93.0035477        -3.47251080E-05
   93.1303406        -2.72666366E-05
   93.2571335        -1.95366501E-05
   93.3839264        -1.16415222E-05
   93.5107193        -3.69135387E-06
   93.6375122         4.20320384E-06
   93.7643051         1.19339293E-05
   93.8910980         1.93979522E-05
   94.0178909         2.65004182E-05
   94.1446838         3.31568954E-05
   94.2714767         3.92953880E-05
   94.3982697         4.48580031E-05
   94.5250626         4.98020818E-05
   94.6518555         5.41009395E-05
   94.7786484         5.77441242E-05
   94.9054413         6.07371476E-05
   95.0322342         6.31008588E-05
   95.1590271         6.48702844E-05
   95.2858200         6.60931983E-05
   95.4126129         6.68283101E-05
   95.5394058         6.71432135E-05
   95.6661987         6.71121452E-05
   95.7929916         6.68136126E-05
   95.9197769         6.63280371E-05
   96.0465698         6.57353376E-05
   96.1733627         6.51127266E-05
   96.3001556         6.45325563E-05
   96.4269485         6.40604994E-05
   96.5537415         6.37539415E-05
   96.6805344         6.36607365E-05
   96.8073273         6.38182537E-05
   96.9341202         6.42528685E-05
   97.0609131         6.49797075E-05
   97.1877060         6.60029109E-05
   97.3144989         6.73160685E-05
   97.4412918         6.89030931E-05
   97.5680847         7.07392755E-05
   97.6948776         7.27925944E-05
   97.8216705         7.50251784E-05
   97.9484634         7.73948414E-05
   98.0752563         7.98566834E-05