  -4.50000000         0.00000000    
  -4.37320757         0.00000000    
  -4.24641466         0.00000000    
  -4.11962223         0.00000000    
  -3.99282932         0.00000000    
  -3.86603665         0.00000000    
  -3.73924398         0.00000000    
  -3.61245155         6.46024377E-31
  -3.48565888         3.72165837E-30
  -3.35886621         3.32132999E-29
  -3.23207355         1.45573473E-28
  -3.10528088         6.39644090E-28
  -2.97848821         3.29213342E-27
  -2.85169554         1.66032972E-26
  -2.72490287         7.06515536E-26
  -2.59811020         2.46664627E-25
  -2.47131753         7.13504918E-25
  -2.34452486         1.72878552E-24
  -2.21773219         3.51332851E-24
  -2.09093952         5.88990176E-24
  -1.96414697         7.68071107E-24
  -1.83735430         6.16864615E-24
  -1.71056163        -2.59834117E-24
  -1.58376896        -2.15665878E-23
  -1.45697629        -4.78913637E-23
  -1.33018374        -6.69377761E-23
  -1.20339108        -4.97527568E-23
  -1.07659841         3.81552141E-23
 -0.949805737         2.09441977E-22
 -0.823013067         4.10080569E-22
 -0.696220458         4.76000892E-22
 -0.569427788         1.32153298E-22
 -0.442635119        -9.13596551E-22
 -0.315842479        -2.74916162E-21
 -0.189049825        -4.94377902E-21
  -6.22571707E-02    -6.28207042E-21
   6.45354837E-02    -4.79339856E-21
  0.191328138         1.65166814E-21
  0.318120778         1.40464445E-20
  0.444913447         3.04698990E-20
  0.571706116         4.45299338E-20
  0.698498726         4.51698711E-20
  0.825291395         1.90672401E-20
  0.952084064        -4.36945202E-20
   1.07887673        -1.41293215E-19
   1.20566940        -2.51596935E-19
   1.33246195        -3.27492592E-19
   1.45925462        -3.00976878E-19
   1.58604729        -9.97418002E-20
   1.71283996         3.23423716E-19
   1.83963263         9.53396587E-19
   1.96642530         1.67845121E-18
   2.09321785         2.27398237E-18
   2.22001052         2.41958084E-18
   2.34680319         1.75970805E-18
   2.47359586         7.64062854E-21
   2.60038853        -2.92170263E-18
   2.72718120        -6.77826990E-18
   2.85397387        -1.08801117E-17
   2.98076653        -1.40916752E-17
   3.10755920        -1.49070271E-17
   3.23435187        -1.16518820E-17
   3.36114454        -2.79933098E-18
   3.48793697         1.26230781E-17
   3.61472964         3.45699656E-17
   3.74152231         6.15040351E-17
   3.86831498         8.99715617E-17
   3.99510765         1.14315037E-16
   4.12190056         1.26653554E-16
   4.24869299         1.17311297E-16
   4.37548542         7.59061760E-17
   4.50227833        -6.71672808E-18
   4.62907076        -1.35650712E-16
   4.75586367        -3.08393155E-16
   4.88265610        -5.11183907E-16
   5.00944901        -7.16204420E-16
   5.13624144        -8.80951429E-16
   5.26303434        -9.51170778E-16
   5.38982677        -8.68392683E-16
   5.51661968        -5.82263842E-16
   5.64341211        -6.65802903E-17
   5.77020502         6.63597851E-16
   5.89699745         1.53774491E-15
   6.02379036         2.42333649E-15
   6.15058279         3.13146768E-15
   6.27737522         3.43755235E-15
   6.40416813         3.11727733E-15
   6.53096056         1.99442759E-15
   6.65775347        -6.41696114E-18
   6.78454590        -2.81206955E-15
   6.91133881        -6.16872835E-15
   7.03813124        -9.63567147E-15
   7.16492414        -1.26113829E-14
   7.29171658        -1.43940137E-14
   7.41850948        -1.42724526E-14
   7.54530191        -1.16389781E-14
   7.67209482        -6.11030129E-15
   7.79888725         2.35859479E-15
   7.92567968         1.33840244E-14
   8.05247211         2.61019251E-14
   8.17926502         3.91683688E-14
   8.30605793         5.08230576E-14
   8.43285084         5.90228956E-14
   8.55964279         6.16477965E-14
   8.68643570         5.67734370E-14
   8.81322861         4.29956939E-14
   8.94002151         1.97789037E-14
   9.06681347        -1.22136857E-14
   9.19360638        -5.08612588E-14
   9.32039928        -9.24602937E-14
   9.44719219        -1.31794383E-13
   9.57398415        -1.62449522E-13
   9.70077705        -1.77403272E-13
   9.82756996        -1.69883801E-13
   9.95436192        -1.34455096E-13
   10.0811548        -6.82441706E-14
   10.2079477         2.78127910E-14
   10.3347406         1.47858912E-13
   10.4615326         2.80311527E-13
   10.5883255         4.07540158E-13
   10.7151184         5.06193557E-13
   10.8419113         5.48312643E-13
   10.9687033         5.03322210E-13
   11.0954962         3.40928376E-13
   11.2222891         3.48663799E-14
   11.3490820        -4.32657491E-13
   11.4758739        -1.06609773E-12
   11.6026669        -1.85166097E-12
   11.7294598        -2.75284461E-12
   11.8562517        -3.70700302E-12
   11.9830446        -4.62355848E-12
   12.1098375        -5.38447368E-12
   12.2366304        -5.84753556E-12
   12.3634224        -5.85287201E-12
   12.4902153        -5.23292564E-12
   12.6170082        -3.82586714E-12
   12.7438011        -1.49213411E-12
   12.8705931         1.86656311E-12
   12.9973860         6.28676061E-12
   13.1241789         1.17226506E-11
   13.2509708         1.80270798E-11
   13.3777637         2.49360949E-11
   13.5045567         3.20592268E-11
   13.6313496         3.88776754E-11
   13.7581415         4.47525385E-11
   13.8849344         4.89446920E-11
   14.0117273         5.06475487E-11
   14.1385202         4.90329236E-11
   14.2653122         4.33092173E-11
   14.3921051         3.27901144E-11
   14.5188980         1.69704910E-11
   14.6456909        -4.39471419E-12
   14.7724829        -3.12141146E-11
   14.8992758        -6.29921532E-11
   15.0260687        -9.87766813E-11
   15.1528606        -1.37128559E-10
   15.2796535        -1.76119369E-10
   15.4064465        -2.13362647E-10
   15.5332394        -2.46082266E-10
   15.6600313        -2.71219658E-10
   15.7868242        -2.85579588E-10
   15.9136171        -2.86010438E-10
   16.0404091        -2.69613193E-10
   16.1672020        -2.33969705E-10
   16.2939949        -1.77377946E-10
   16.4207878        -9.90807852E-11
   16.5475807         5.28185893E-13
   16.6743736         1.19737359E-10
   16.8011646         2.55404947E-10
   16.9279575         4.02915951E-10
   17.0547504         5.56220570E-10
   17.1815434         7.07962078E-10
   17.3083363         8.49698922E-10
   17.4351292         9.72219083E-10
   17.5619221         1.06594067E-09
   17.6887150         1.12138543E-09
   17.8155060         1.12970822E-09
   17.9422989         1.08325815E-09
   18.0690918         9.76144165E-10
   18.1958847         8.04774469E-10
   18.3226776         5.68337100E-10
   18.4494705         2.69189171E-10
   18.5762634        -8.68747851E-11
   18.7030544        -4.90503582E-10
   18.8298473        -9.28838950E-10
   18.9566402        -1.38574874E-09
   19.0834332        -1.84224858E-09
   19.2102261        -2.27710917E-09
   19.3370190        -2.66763434E-09
   19.4638119        -2.99059044E-09
   19.5906048        -3.22324878E-09
   19.7173958        -3.34450978E-09
   19.8441887        -3.33605144E-09
   19.9709816        -3.18346038E-09
   20.0977745        -2.87728308E-09
   20.2245674        -2.41394615E-09
   20.3513603        -1.79649051E-09
   20.4781532        -1.03507114E-09
   20.6049442        -1.47180546E-10
   20.7317371         8.42436065E-10
   20.8585300         1.90219551E-09
   20.9853230         2.99442870E-09
   21.1121159         4.07646361E-09
   21.2389088         5.10201925E-09
   21.3657017         6.02287553E-09
   21.4924946         6.79077061E-09
   21.6192856         7.35945616E-09
   21.7460785         7.68685382E-09
   21.8728714         7.73720465E-09
   21.9996643         7.48314832E-09
   22.1264572         6.90761581E-09
   22.2532501         6.00546057E-09
   22.3800430         4.78471707E-09
   22.5068340         3.26742611E-09
   22.6336269         1.48993595E-09
   22.7604198        -4.97366037E-10
   22.8872128        -2.63093547E-09
   23.0140057        -4.83557772E-09
   23.1407986        -7.02657754E-09
   23.2675915        -9.11242015E-09
   23.3943844        -1.09980327E-08
   23.5211754        -1.25884743E-08
   23.6479683        -1.37929455E-08
   23.7747612        -1.45289940E-08
   23.9015541        -1.47267469E-08
   24.0283470        -1.43330015E-08
   24.1551399        -1.33149811E-08
   24.2819328        -1.16635768E-08
   24.4087238        -9.39586720E-09
   24.5355167        -6.55677201E-09
   24.6623096        -3.21965277E-09
   24.7891026         5.14244147E-10
   24.9158955         4.51759208E-09
   25.0426884         8.64007355E-09
   25.1694813         1.27127517E-08
   25.2962742         1.65536473E-08
   25.4230652         1.99744132E-08
   25.5498581         2.27878907E-08
   25.6766510         2.48163392E-08
   25.8034439         2.59000270E-08
   25.9302368         2.59058393E-08
   26.0570297         2.47355452E-08
   26.1838226         2.23333210E-08
   26.3106136         1.86921358E-08
   26.4374065         1.38586120E-08
   26.5641994         7.93601451E-09
   26.6909924         1.08506415E-09
   26.8177853        -6.47765264E-09
   26.9445782        -1.44838523E-08
   27.0713711        -2.26203021E-08
   27.1981640        -3.05381285E-08
   27.3249550        -3.78644884E-08
   27.4517479        -4.42163213E-08
   27.5785408        -4.92157959E-08
   27.7053337        -5.25068558E-08
   27.8321266        -5.37723572E-08
   27.9589195        -5.27510586E-08
   28.0857124        -4.92537318E-08
   28.2125034        -4.31776819E-08
   28.3392963        -3.45188980E-08
   28.4660892        -2.33811495E-08
   28.5928822        -9.98140326E-09
   28.7196751         5.34894218E-09
   28.8464680         2.21674359E-08
   28.9732609         3.99286968E-08
   29.1000538         5.79973900E-08
   29.2268448         7.56658878E-08
   29.3536377         9.21762435E-08
   29.4804306         1.06745873E-07
   29.6072235         1.18596319E-07
   29.7340164         1.26984062E-07
   29.8608093         1.31232383E-07
   29.9876022         1.30763098E-07
   30.1143932         1.25126888E-07
   30.2411861         1.14031046E-07
   30.3679790         9.73633121E-08
   30.4947720         7.52106857E-08
   30.6215649         4.78722022E-08
   30.7483578         1.58647495E-08
   30.8751507        -2.00786747E-08
   31.0019417        -5.90186673E-08
   31.1287346        -9.98272185E-08
   31.2555275        -1.41213434E-07
   31.3823204        -1.81756704E-07
   31.5091133        -2.19946557E-07
   31.6359062        -2.54228183E-07
   31.7626991        -2.83052231E-07
   31.8894920        -3.04927738E-07
   32.0162849        -3.18475884E-07
   32.1430779        -3.22483629E-07
   32.2698708        -3.15954622E-07
   32.3966637        -2.98156095E-07
   32.5234528        -2.68659846E-07
   32.6502457        -2.27375679E-07
   32.7770386        -1.74575902E-07
   32.9038315        -1.10909859E-07
   33.0306244        -3.74075420E-08
   33.1574173         4.45283703E-08
   33.2842102         1.33141981E-07
   33.4110031         2.26355311E-07
   33.5377960         3.21810347E-07
   33.6645889         4.16921353E-07
   33.7913818         5.08936012E-07
   33.9181747         5.95004110E-07
   34.0449677         6.72252042E-07
   34.1717606         7.37860944E-07
   34.2985535         7.89146668E-07
   34.4253426         8.23639141E-07
   34.5521355         8.39158986E-07
   34.6789284         8.33889601E-07
   34.8057213         8.06441847E-07
   34.9325142         7.55909980E-07
   35.0593071         6.81917015E-07
   35.1861000         5.84648035E-07
   35.3128929         4.64870197E-07
   35.4396858         3.23938394E-07
   35.5664787         1.63787064E-07
   35.6932716        -1.30931710E-08
   35.8200645        -2.03692650E-07
   35.9468575        -4.04533580E-07
   36.0736504        -6.11733356E-07
   36.2004433        -8.21078629E-07
   36.3272324        -1.02810895E-06
   36.4540253        -1.22820745E-06
   36.5808182        -1.41669670E-06
   36.7076111        -1.58893727E-06
   36.8344040        -1.74042634E-06
   36.9611969        -1.86689545E-06
   37.0879898        -1.96440146E-06
   37.2147827        -2.02941396E-06
   37.3415756        -2.05889091E-06
   37.4683685        -2.05034758E-06
   37.5951614        -2.00191084E-06
   37.7219543        -1.91236268E-06
   37.8487473        -1.78117125E-06
   37.9755402        -1.60850709E-06
   38.1023293        -1.39524855E-06
   38.2291222        -1.14297393E-06
   38.3559151        -8.53944130E-07
   38.4827080        -5.31075102E-07
   38.6095009        -1.77903814E-07
   38.7362938         2.01451428E-07
   38.8630867         6.02334183E-07
   38.9898796         1.01959381E-06
   39.1166725         1.44762907E-06
   39.2434654         1.88042907E-06
   39.3702583         2.31161016E-06
   39.4970512         2.73444834E-06
   39.6238441         3.14190606E-06
   39.7506371         3.52665256E-06
   39.8774300         3.88108037E-06
   40.0042191         4.19731805E-06
   40.1310120         4.46723834E-06
   40.2578049         4.68246890E-06
   40.3845978         4.83440181E-06
   40.5113907         4.91421088E-06
   40.6381836         4.91287392E-06
   40.7649765         4.82120549E-06
   40.8917694         4.62990420E-06
   41.0185623         4.32961269E-06
   41.1453552         3.91099547E-06
   41.2721481         3.36483413E-06
   41.3989410         2.68214171E-06
   41.5257339         1.85429599E-06
   41.6525269         8.73187560E-07
   41.7793198        -2.68614372E-07
   41.9061089        -1.57768545E-06
   42.0329018        -3.05955996E-06
   42.1596947        -4.71853991E-06
   42.2864876        -6.55750455E-06
   42.4132805        -8.57772375E-06
   42.5400734        -1.07786855E-05
   42.6668663        -1.31579345E-05
   42.7936592        -1.57109389E-05
   42.9204521        -1.84309756E-05
   43.0472450        -2.13090461E-05
   43.1740379        -2.43338473E-05
   43.3008308        -2.74917402E-05
   43.4276237        -3.07667906E-05
   43.5544167        -3.41408486E-05
   43.6812096        -3.75936579E-05
   43.8079987        -4.11029941E-05
   43.9347916        -4.46448867E-05
   44.0615845        -4.81938259E-05
   44.1883774        -5.17230183E-05
   44.3151703        -5.52047095E-05
   44.4419632        -5.86104798E-05
   44.5687561        -6.19115817E-05
   44.6955490        -6.50792790E-05
   44.8223419        -6.80852318E-05
   44.9491348        -7.09018204E-05
   45.0759277        -7.35025314E-05
   45.2027206        -7.58622991E-05
   45.3295135        -7.79578622E-05
   45.4563065        -7.97680186E-05
   45.5830994        -8.12739672E-05
   45.7098885        -8.24595409E-05
   45.8366814        -8.33114536E-05
   45.9634743        -8.38194537E-05
   46.0902672        -8.39765053E-05
   46.2170601        -8.37788612E-05
   46.3438530        -8.32261285E-05
   46.4706459        -8.23212758E-05
   46.5974388        -8.10706115E-05
   46.7242317        -7.94836960E-05
   46.8510246        -7.75731824E-05
   46.9778175        -7.53546847E-05
   47.1046104        -7.28465457E-05
   47.2314034        -7.00695600E-05
   47.3581963        -6.70467562E-05
   47.4849892        -6.38030833E-05
   47.6117783        -6.03650697E-05
   47.7385712        -5.67605384E-05
   47.8653641        -5.30182479E-05
   47.9921570        -4.91675746E-05
   48.1189499        -4.52382192E-05
   48.2457428        -4.12598820E-05
   48.3725357        -3.72619907E-05
   48.4993286        -3.32734489E-05
   48.6261215        -2.93224439E-05
   48.7529144        -2.54362640E-05
   48.8797073        -2.16411263E-05
   49.0065002        -1.79620711E-05
   49.1332932        -1.44228497E-05
   49.2600861        -1.10458768E-05
   49.3868790        -7.85215889E-06
   49.5136681        -4.86125009E-06
   49.6404610        -2.09125506E-06
   49.7672539         4.41210005E-07
   49.8940468         2.72104990E-06
   50.0208397         4.73472801E-06
   50.1476326         6.47033812E-06
   50.2744255         7.91767707E-06
   50.4012184         9.06837158E-06
   50.5280113         9.91599609E-06
   50.6548042         1.04562259E-05
   50.7815971         1.06870330E-05
   50.9083900         1.06088355E-05
   51.0351830         1.02247004E-05
   51.1619759         9.54052575E-06
   51.2887688         8.56519910E-06
   51.4155579         7.31075215E-06
   51.5423508         5.79245534E-06
   51.6691437         4.02886144E-06
   51.7959366         2.04182243E-06
   51.9227295        -1.43592416E-07
   52.0495224        -2.49923755E-06
   52.1763153        -4.99414409E-06
   52.3031082        -7.59481509E-06
   52.4299011        -1.02656413E-05
   52.5566940        -1.29693635E-05
   52.6834869        -1.56676106E-05
   52.8102798        -1.83214925E-05
   52.9370728        -2.08922429E-05
   53.0638657        -2.33418596E-05
   53.1906586        -2.56338153E-05
   53.3174477        -2.77337112E-05
   53.4442406        -2.96099079E-05
   53.5710335        -3.12341144E-05
   53.6978264        -3.25819419E-05
   53.8246193        -3.36332996E-05
   53.9514122        -3.43727734E-05
   54.0782051        -3.47898967E-05
   54.2049980        -3.48792055E-05
   54.3317909        -3.46403140E-05
   54.4585838        -3.40778242E-05
   54.5853767        -3.32010713E-05
   54.7121696        -3.20238869E-05
   54.8389626        -3.05641915E-05
   54.9657555        -2.88435349E-05
   55.0925484        -2.68865933E-05
   55.2193375        -2.47206008E-05
   55.3461304        -2.23748011E-05
   55.4729233        -1.98798461E-05
   55.5997162        -1.72672844E-05
   55.7265091        -1.45690274E-05
   55.8533020        -1.18168782E-05
   55.9800949        -9.04209446E-06
   56.1068878        -6.27505051E-06
   56.2336807        -3.54489543E-06
   56.3604736        -8.79333584E-07
   56.4872665         1.69560690E-06
   56.6140594         4.15569320E-06
   56.7408524         6.47858769E-06
   56.8676453         8.64395679E-06
   56.9944382         1.06335146E-05
   57.1212273         1.24310673E-05
   57.2480202         1.40225920E-05
   57.3748131         1.53963301E-05
   57.5016060         1.65428683E-05
   57.6283989         1.74552970E-05
   57.7551918         1.81293235E-05
   57.8819847         1.85634781E-05
   58.0087776         1.87592450E-05
   58.1355705         1.87212736E-05
   58.2623634         1.84575401E-05
   58.3891563         1.79794879E-05
   58.5159492         1.73021308E-05
   58.6427422         1.64441153E-05
   58.7695351         1.54276768E-05
   58.8963280         1.42785384E-05
   59.0231171         1.30256713E-05
   59.1499100         1.17010040E-05
   59.2767029         1.03389393E-05
   59.4034958         8.97581958E-06
   59.5302887         7.64928882E-06
   59.6570816         6.39752807E-06
   59.7838745         5.25841051E-06
   59.9106674         4.26866382E-06
   60.0374603         3.46290426E-06
   60.1642532         2.87273679E-06
   60.2910461         2.52584164E-06
   60.4178391         2.44513308E-06
   60.5446320         2.64799178E-06
   60.6714249         3.14560430E-06
   60.7982178         3.94245535E-06
   60.9250069         5.03601268E-06
   61.0517998         6.41655379E-06
   61.1785927         8.06721619E-06
   61.3053856         9.96424933E-06
   61.4321785         1.20774848E-05
   61.5589714         1.43709449E-05
   61.6857643         1.68036986E-05
   61.8125572         1.93308351E-05
   61.9393501         2.19046142E-05
   62.0661430         2.44756775E-05
   62.1929359         2.69943812E-05
   62.3197289         2.94121419E-05
   62.4465218         3.16827609E-05
   62.5733147         3.37637321E-05
   62.7001076         3.56173696E-05
   62.8268967         3.72118957E-05
   62.9536896         3.85223393E-05
   63.0804825         3.95312418E-05
   63.2072754         4.02291298E-05
   63.3340683         4.06147883E-05
   63.4608612         4.06952713E-05
   63.5876541         4.04856837E-05
   63.7144470         4.00086610E-05
   63.8412399         3.92936709E-05
   63.9680328         3.83761144E-05
   64.0948257         3.72961549E-05
   64.2216187         3.60974955E-05
   64.3484116         3.48259819E-05
   64.4752045         3.35281693E-05
   64.6019974         3.22498090E-05
   64.7287903         3.10344076E-05
   64.8555832         2.99218373E-05
   64.9823761         2.89469735E-05
   65.1091690         2.81385746E-05
   65.2359619         2.75182883E-05
   65.3627548         2.70999080E-05
   65.4895477         2.68888289E-05
   65.6163330         2.68818312E-05
   65.7431259         2.70670735E-05
   65.8699188         2.74244085E-05
   65.9967117         2.79259566E-05
   66.1235046         2.85369206E-05
   66.2502975         2.92166442E-05
   66.3770905         2.99198618E-05
   66.5038834         3.05981412E-05
   66.6306763         3.12014272E-05
   66.7574692         3.16796650E-05
   66.8842621         3.19844985E-05
   67.0110550         3.20709114E-05
   67.1378479         3.18987841E-05
   67.2646408         3.14343342E-05
   67.3914337         3.06514303E-05
   67.5182266         2.95325954E-05
   67.6450195         2.80698587E-05
   67.7718124         2.62652829E-05
   67.8986053         2.41312373E-05
   68.0253983         2.16903554E-05
   68.1521912         1.89752373E-05
   68.2789841         1.60277868E-05
   68.4057770         1.28982992E-05
   68.5325699         9.64430637E-06
   68.6593628         6.32920728E-06
   68.7861557         3.02071271E-06
   68.9129486        -2.10787945E-07
   69.0397415        -3.29405589E-06
   69.1665344        -6.15870476E-06
   69.2933273        -8.73699628E-06
   69.4201126        -1.09655039E-05
   69.5469055        -1.27866870E-05
   69.6736984        -1.41502769E-05
   69.8004913        -1.50145243E-05
   69.9272842        -1.53471592E-05
   70.0540771        -1.51261302E-05
   70.1808701        -1.43400075E-05
   70.3076630        -1.29881873E-05
   70.4344559        -1.10807778E-05
   70.5612488        -8.63815330E-06
   70.6880417        -5.69037138E-06
   70.8148346        -2.27627424E-06
   70.9416275         1.55760233E-06
   71.0684204         5.75826471E-06
   71.1952133         1.02676204E-05
   71.3220062         1.50239848E-05
   71.4487991         1.99635870E-05
   71.5755920         2.50221165E-05
   71.7023849         3.01362197E-05
   71.8291779         3.52448951E-05
   71.9559708         4.02908299E-05
   72.0827637         4.52215536E-05
   72.2095566         4.99904272E-05
   72.3363495         5.45574221E-05
   72.4631424         5.88897201E-05
   72.5899353         6.29620699E-05
   72.7167282         6.67569329E-05
   72.8435211         7.02644975E-05
   72.9703140         7.34823479E-05
   73.0971069         7.64151337E-05
   73.2238922         7.90738195E-05
   73.3506851         8.14750820E-05
   73.4774780         8.36404215E-05
   73.6042709         8.55951730E-05
   73.7310638         8.73676472E-05
   73.8578568         8.89881194E-05
   73.9846497         9.04878907E-05
   74.1114426         9.18983715E-05
   74.2382355         9.32503244E-05
   74.3650284         9.45730426E-05
   74.4918213         9.58937671E-05
   74.6186142         9.72371563E-05
   74.7454071         9.86248924E-05
   74.8722000         1.00075449E-04
   74.9989929         1.01603982E-04
   75.1257858         1.03222323E-04
   75.2525787         1.04939099E-04
   75.3793716         1.06759908E-04
   75.5061646         1.08687600E-04
   75.6329575         1.10722649E-04
   75.7597504         1.12863447E-04
   75.8865433         1.15106683E-04
   76.0133362         1.17447744E-04
   76.1401291         1.19881079E-04
   76.2669220         1.22400452E-04
   76.3937149         1.24999293E-04
   76.5205078         1.27670704E-04
   76.6473007         1.30407760E-04
   76.7740936         1.33203328E-04
   76.9008865         1.36050119E-04
   77.0276718         1.38940435E-04
   77.1544647         1.41866010E-04
   77.2812576         1.44817692E-04
   77.4080505         1.47785060E-04
   77.5348434         1.50756096E-04
   77.6616364         1.53716799E-04
   77.7884293         1.56650742E-04
   77.9152222         1.59538744E-04
   78.0420151         1.62358527E-04
   78.1688080         1.65084450E-04
   78.2956009         1.67687438E-04
   78.4223938         1.70134823E-04
   78.5491867         1.72390442E-04
   78.6759796         1.74414890E-04
   78.8027725         1.76165733E-04
   78.9295654         1.77598034E-04
   79.0563583         1.78664894E-04
   79.1831512         1.79318158E-04
   79.3099442         1.79509239E-04
   79.4367371         1.79189970E-04
   79.5635300         1.78313639E-04
   79.6903229         1.76835936E-04
   79.8171158         1.74715940E-04
   79.9439087         1.71917156E-04
   80.0707016         1.68408471E-04
   80.1974945         1.64164958E-04
   80.3242874         1.59168645E-04
   80.4510803         1.53409172E-04
   80.5778732         1.46884297E-04
   80.7046585         1.39600161E-04
   80.8314514         1.31571549E-04
   80.9582443         1.22821759E-04
   81.0850372         1.13382528E-04
   81.2118301         1.03293562E-04
   81.3386230         9.26020293E-05
   81.4654160         8.13619190E-05
   81.5922089         6.96331845E-05
   81.7190018         5.74809237E-05
   81.8457947         4.49743602E-05
   81.9725876         3.21858424E-05
   82.0993805         1.91897925E-05
   82.2261734         6.06163030E-06
   82.3529663        -7.12324345E-06
   82.4797592        -2.02904776E-05
   82.6065521        -3.33676981E-05
   82.7333450        -4.62853641E-05
   82.8601379        -5.89775300E-05
   82.9869308        -7.13825066E-05
   83.1137238        -8.34434322E-05
   83.2405167        -9.51086913E-05
   83.3673096        -1.06332285E-04
   83.4941025        -1.17074123E-04
   83.6208954        -1.27300082E-04
   83.7476883        -1.36982126E-04
   83.8744812        -1.46098260E-04
   84.0012741        -1.54632347E-04
   84.1280670        -1.62574011E-04
   84.2548599        -1.69918188E-04
   84.3816528        -1.76665053E-04
   84.5084381        -1.82819407E-04
   84.6352310        -1.88390448E-04
   84.7620239        -1.93391257E-04
   84.8888168        -1.97838410E-04
   85.0156097        -2.01751449E-04
   85.1424026        -2.05152552E-04
   85.2691956        -2.08065976E-04
   85.3959885        -2.10517610E-04
   85.5227814        -2.12534535E-04
   85.6495743        -2.14144602E-04
   85.7763672        -2.15376087E-04
   85.9031601        -2.16257395E-04
   86.0299530        -2.16816741E-04
   86.1567459        -2.17081906E-04
   86.2835388        -2.17080058E-04
   86.4103317        -2.16837594E-04
   86.5371246        -2.16380038E-04
   86.6639175        -2.15731998E-04
   86.7907104        -2.14917149E-04
   86.9175034        -2.13958163E-04
   87.0442963        -2.12876927E-04
   87.1710892        -2.11694583E-04
   87.2978821        -2.10431695E-04
   87.4246750        -2.09108373E-04
   87.5514679        -2.07744422E-04
   87.6782608        -2.06359444E-04
   87.8050537        -2.04972923E-04
   87.9318466        -2.03604359E-04
   88.0586395        -2.02273222E-04
   88.1854324        -2.00999028E-04
   88.3122177        -1.99801245E-04
   88.4390106        -1.98699185E-04
   88.5658035        -1.97711823E-04
   88.6925964        -1.96857567E-04
   88.8193893        -1.96153778E-04
   88.9461823        -1.95616463E-04
   89.0729752        -1.95259709E-04
   89.1997681        -1.95095156E-04
   89.3265610        -1.95131477E-04
   89.4533539        -1.95373781E-04
   89.5801468        -1.95823101E-04
   89.7069397        -1.96475841E-04
   89.8337326        -1.97323359E-04
   89.9605255        -1.98351569E-04
   90.0873184        -1.99540693E-04
   90.2141113        -2.00865121E-04
   90.3409042        -2.02293493E-04
   90.4676971        -2.03788950E-04
   90.5944901        -2.05309552E-04
   90.7212830        -2.06808967E-04
   90.8480759        -2.08237310E-04
   90.9748688        -2.09542239E-04
   91.1016617        -2.10670041E-04
   91.2284546        -2.11566992E-04
   91.3552475        -2.12180734E-04
   91.4820404        -2.12461819E-04
   91.6088333        -2.12365107E-04
   91.7356262        -2.11851177E-04
   91.8624191        -2.10887738E-04
   91.9892120        -2.09450809E-04
   92.1159973        -2.07525591E-04
   92.2427902        -2.05107310E-04
   92.3695831        -2.02201554E-04
   92.4963760        -1.98824375E-04
   92.6231689        -1.95002111E-04
   92.7499619        -1.90770792E-04
   92.8767548        -1.86175268E-04
   93.0035477        -1.81268100E-04
   93.1303406        -1.76108093E-04
   93.2571335        -1.70758678E-04
   93.3839264        -1.65286154E-04
   93.5107193        -1.59757648E-04
   93.6375122        -1.54239184E-04
   93.7643051        -1.48793799E-04
   93.8910980        -1.43479570E-04
   94.0178909        -1.38348027E-04
   94.1446838        -1.33442634E-04
   94.2714767        -1.28797663E-04
   94.3982697        -1.24437283E-04
   94.5250626        -1.20375102E-04
   94.6518555        -1.16613941E-04
   94.7786484        -1.13146103E-04
   94.9054413        -1.09953813E-04
   95.0322342        -1.07010164E-04
   95.1590271        -1.04280254E-04
   95.2858200        -1.01722682E-04
   95.4126129        -9.92911955E-05
   95.5394058        -9.69364992E-05
   95.6661987        -9.46081855E-05
   95.7929916        -9.22565887E-05
   95.9197769        -8.98346552E-05
   96.0465698        -8.72996243E-05
   96.1733627        -8.46145413E-05
   96.3001556        -8.17495820E-05
   96.4269485        -7.86830497E-05
   96.5537415        -7.54021457E-05
   96.6805344        -7.19033342E-05
   96.8073273        -6.81924721E-05
   96.9341202        -6.42844898E-05
   97.0609131        -6.02027976E-05
   97.1877060        -5.59783875E-05
   97.3144989        -5.16486652E-05
   97.4412918        -4.72560459E-05
   97.5680847        -4.28464518E-05
   97.6948776        -3.84676787E-05
   97.8216705        -3.41677842E-05
   97.9484634        -2.99934618E-05
   98.0752563        -2.59885401E-05