  -4.50000000         0.00000000    
  -4.37320757         0.00000000    
  -4.24641466         0.00000000    
  -4.11962223         0.00000000    
  -3.99282932         0.00000000    
  -3.86603665         0.00000000    
  -3.73924398         0.00000000    
  -3.61245155         0.00000000    
  -3.48565888         0.00000000    
  -3.35886621         0.00000000    
  -3.23207355         0.00000000    
  -3.10528088         0.00000000    
  -2.97848821         0.00000000    
  -2.85169554         0.00000000    
  -2.72490287         0.00000000    
  -2.59811020         0.00000000    
  -2.47131753         0.00000000    
  -2.34452486         0.00000000    
  -2.21773219         0.00000000    
  -2.09093952         0.00000000    
  -1.96414697         0.00000000    
  -1.83735430         0.00000000    
  -1.71056163         0.00000000    
  -1.58376896         0.00000000    
  -1.45697629         0.00000000    
  -1.33018374         0.00000000    
  -1.20339108         0.00000000    
  -1.07659841         0.00000000    
 -0.949805737         0.00000000    
 -0.823013067         0.00000000    
 -0.696220458         0.00000000    
 -0.569427788         0.00000000    
 -0.442635119         0.00000000    
 -0.315842479         0.00000000    
 -0.189049825         0.00000000    
  -6.22571707E-02     0.00000000    
   6.45354837E-02     0.00000000    
  0.191328138         0.00000000    
  0.318120778         0.00000000    
  0.444913447         0.00000000    
  0.571706116         0.00000000    
  0.698498726         0.00000000    
  0.825291395         0.00000000    
  0.952084064         0.00000000    
   1.07887673         0.00000000    
   1.20566940         0.00000000    
   1.33246195         0.00000000    
   1.45925462         0.00000000    
   1.58604729         0.00000000    
   1.71283996         0.00000000    
   1.83963263         0.00000000    
   1.96642530         0.00000000    
   2.09321785         0.00000000    
   2.22001052         0.00000000    
   2.34680319         0.00000000    
   2.47359586         0.00000000    
   2.60038853         0.00000000    
   2.72718120         0.00000000    
   2.85397387         0.00000000    
   2.98076653         0.00000000    
   3.10755920         0.00000000    
   3.23435187         0.00000000    
   3.36114454         0.00000000    
   3.48793697         0.00000000    
   3.61472964         0.00000000    
   3.74152231         0.00000000    
   3.86831498         0.00000000    
   3.99510765         0.00000000    
   4.12190056         0.00000000    
   4.24869299         0.00000000    
   4.37548542         0.00000000    
   4.50227833         0.00000000    
   4.62907076         0.00000000    
   4.75586367         0.00000000    
   4.88265610         0.00000000    
   5.00944901         0.00000000    
   5.13624144         0.00000000    
   5.26303434         0.00000000    
   5.38982677         0.00000000    
   5.51661968         0.00000000    
   5.64341211         0.00000000    
   5.77020502         0.00000000    
   5.89699745         0.00000000    
   6.02379036         0.00000000    
   6.15058279         0.00000000    
   6.27737522         0.00000000    
   6.40416813         0.00000000    
   6.53096056         0.00000000    
   6.65775347         0.00000000    
   6.78454590         0.00000000    
   6.91133881         0.00000000    
   7.03813124         0.00000000    
   7.16492414         0.00000000    
   7.29171658         0.00000000    
   7.41850948         0.00000000    
   7.54530191         0.00000000    
   7.67209482         0.00000000    
   7.79888725         0.00000000    
   7.92567968         0.00000000    
   8.05247211         0.00000000    
   8.17926502         0.00000000    
   8.30605793         0.00000000    
   8.43285084         0.00000000    
   8.55964279         0.00000000    
   8.68643570         0.00000000    
   8.81322861         0.00000000    
   8.94002151         0.00000000    
   9.06681347         0.00000000    
   9.19360638         0.00000000    
   9.32039928         0.00000000    
   9.44719219         0.00000000    
   9.57398415         0.00000000    
   9.70077705         0.00000000    
   9.82756996         0.00000000    
   9.95436192         0.00000000    
   10.0811548         0.00000000    
   10.2079477         0.00000000    
   10.3347406         0.00000000    
   10.4615326         0.00000000    
   10.5883255         0.00000000    
   10.7151184         0.00000000    
   10.8419113         0.00000000    
   10.9687033         0.00000000    
   11.0954962         0.00000000    
   11.2222891         0.00000000    
   11.3490820         0.00000000    
   11.4758739         0.00000000    
   11.6026669         0.00000000    
   11.7294598         0.00000000    
   11.8562517         0.00000000    
   11.9830446         0.00000000    
   12.1098375         0.00000000    
   12.2366304         0.00000000    
   12.3634224         0.00000000    
   12.4902153         0.00000000    
   12.6170082         0.00000000    
   12.7438011         0.00000000    
   12.8705931         0.00000000    
   12.9973860         0.00000000    
   13.1241789         0.00000000    
   13.2509708         0.00000000    
   13.3777637         0.00000000    
   13.5045567         0.00000000    
   13.6313496         0.00000000    
   13.7581415         0.00000000    
   13.8849344         0.00000000    
   14.0117273         0.00000000    
   14.1385202         0.00000000    
   14.2653122         0.00000000    
   14.3921051         0.00000000    
   14.5188980         0.00000000    
   14.6456909         0.00000000    
   14.7724829         0.00000000    
   14.8992758         0.00000000    
   15.0260687         0.00000000    
   15.1528606         0.00000000    
   15.2796535         0.00000000    
   15.4064465         0.00000000    
   15.5332394         0.00000000    
   15.6600313         0.00000000    
   15.7868242         0.00000000    
   15.9136171         0.00000000    
   16.0404091         0.00000000    
   16.1672020         0.00000000    
   16.2939949         0.00000000    
   16.4207878         0.00000000    
   16.5475807         0.00000000    
   16.6743736         0.00000000    
   16.8011646         0.00000000    
   16.9279575         0.00000000    
   17.0547504         0.00000000    
   17.1815434         0.00000000    
   17.3083363         0.00000000    
   17.4351292         0.00000000    
   17.5619221         0.00000000    
   17.6887150         0.00000000    
   17.8155060         0.00000000    
   17.9422989         0.00000000    
   18.0690918         0.00000000    
   18.1958847         0.00000000    
   18.3226776         0.00000000    
   18.4494705         0.00000000    
   18.5762634         0.00000000    
   18.7030544         0.00000000    
   18.8298473         0.00000000    
   18.9566402         0.00000000    
   19.0834332         0.00000000    
   19.2102261         0.00000000    
   19.3370190         0.00000000    
   19.4638119         0.00000000    
   19.5906048         0.00000000    
   19.7173958         0.00000000    
   19.8441887         0.00000000    
   19.9709816         0.00000000    
   20.0977745         0.00000000    
   20.2245674         0.00000000    
   20.3513603         0.00000000    
   20.4781532         0.00000000    
   20.6049442         0.00000000    
   20.7317371         0.00000000    
   20.8585300         0.00000000    
   20.9853230         0.00000000    
   21.1121159         0.00000000    
   21.2389088         0.00000000    
   21.3657017         0.00000000    
   21.4924946         0.00000000    
   21.6192856         0.00000000    
   21.7460785         0.00000000    
   21.8728714         0.00000000    
   21.9996643         0.00000000    
   22.1264572         0.00000000    
   22.2532501         0.00000000    
   22.3800430         0.00000000    
   22.5068340         0.00000000    
   22.6336269         0.00000000    
   22.7604198         0.00000000    
   22.8872128         0.00000000    
   23.0140057         0.00000000    
   23.1407986         0.00000000    
   23.2675915         0.00000000    
   23.3943844         0.00000000    
   23.5211754         0.00000000    
   23.6479683         0.00000000    
   23.7747612         0.00000000    
   23.9015541         0.00000000    
   24.0283470         0.00000000    
   24.1551399         0.00000000    
   24.2819328         0.00000000    
   24.4087238         0.00000000    
   24.5355167         0.00000000    
   24.6623096         0.00000000    
   24.7891026         0.00000000    
   24.9158955         0.00000000    
   25.0426884         0.00000000    
   25.1694813         0.00000000    
   25.2962742         0.00000000    
   25.4230652         0.00000000    
   25.5498581         0.00000000    
   25.6766510         0.00000000    
   25.8034439         0.00000000    
   25.9302368         0.00000000    
   26.0570297         0.00000000    
   26.1838226         0.00000000    
   26.3106136         0.00000000    
   26.4374065         0.00000000    
   26.5641994         0.00000000    
   26.6909924         0.00000000    
   26.8177853         0.00000000    
   26.9445782         0.00000000    
   27.0713711         0.00000000    
   27.1981640         0.00000000    
   27.3249550         0.00000000    
   27.4517479         0.00000000    
   27.5785408         0.00000000    
   27.7053337         0.00000000    
   27.8321266         0.00000000    
   27.9589195         0.00000000    
   28.0857124         0.00000000    
   28.2125034         0.00000000    
   28.3392963         0.00000000    
   28.4660892         0.00000000    
   28.5928822         0.00000000    
   28.7196751         0.00000000    
   28.8464680         0.00000000    
   28.9732609         1.90769637E-33
   29.1000538         2.72172438E-33
   29.2268448         2.27004930E-33
   29.3536377        -2.71382285E-33
   29.4804306        -7.14292154E-33
   29.6072235        -1.02201490E-32
   29.7340164        -1.82501478E-32
   29.8608093        -3.73235531E-32
   29.9876022        -6.01093503E-32
   30.1143932        -8.27452279E-32
   30.2411861        -5.68227328E-32
   30.3679790        -1.45810861E-32
   30.4947720         6.41152705E-32
   30.6215649         1.76452752E-31
   30.7483578         2.82568623E-31
   30.8751507         3.44568474E-31
   31.0019417         3.83876653E-31
   31.1287346         4.17038877E-31
   31.2555275         4.21110272E-31
   31.3823204         4.97398821E-31
   31.5091133         5.44910798E-31
   31.6359062         6.88183952E-31
   31.7626991         1.29415928E-30
   31.8894920         2.36041654E-30
   32.0162849         3.89257525E-30
   32.1430779         6.01206153E-30
   32.2698708         8.16314736E-30
   32.3966637         1.02528897E-29
   32.5234528         1.38304264E-29
   32.6502457         2.03381753E-29
   32.7770386         2.84545737E-29
   32.9038315         3.29993712E-29
   33.0306244         3.51358173E-29
   33.1574173         3.48182044E-29
   33.2842102         3.76738108E-29
   33.4110031         4.10124013E-29
   33.5377960         4.56926548E-29
   33.6645889         4.82406601E-29
   33.7913818         4.24668877E-29
   33.9181747         3.39022923E-29
   34.0449677         1.91382563E-29
   34.1717606        -5.59731619E-31
   34.2985535        -2.42539836E-29
   34.4253426        -5.17930349E-29
   34.5521355        -7.61570237E-29
   34.6789284        -8.83205051E-29
   34.8057213        -9.44606526E-29
   34.9325142        -8.41167477E-29
   35.0593071        -6.48729641E-29
   35.1861000        -2.82844539E-29
   35.3128929         2.55359713E-29
   35.4396858         1.00668569E-28
   35.5664787         2.03610108E-28
   35.6932716         3.22568205E-28
   35.8200645         4.55685425E-28
   35.9468575         5.96196700E-28
   36.0736504         7.28620176E-28
   36.2004433         8.31017489E-28
   36.3272324         8.87035762E-28
   36.4540253         8.84299978E-28
   36.5808182         8.12348873E-28
   36.7076111         6.48122949E-28
   36.8344040         3.82070460E-28
   36.9611969         6.82545058E-30
   37.0879898        -4.61439478E-28
   37.2147827        -1.02057946E-27
   37.3415756        -1.65732878E-27
   37.4683685        -2.34799403E-27
   37.5951614        -3.07819534E-27
   37.7219543        -3.81705448E-27
   37.8487473        -4.52363465E-27
   37.9755402        -5.12830848E-27
   38.1023293        -5.55758401E-27
   38.2291222        -5.73026636E-27
   38.3559151        -5.54337527E-27
   38.4827080        -4.90902787E-27
   38.6095009        -3.74343388E-27
   38.7362938        -1.98291667E-27
   38.8630867         4.04115377E-28
   38.9898796         3.41401204E-27
   39.1166725         6.98753962E-27
   39.2434654         1.10062043E-26
   39.3702583         1.52747276E-26
   39.4970512         1.95359893E-26
   39.6238441         2.34668016E-26
   39.7506371         2.66988956E-26
   39.8774300         2.88266785E-26
   40.0042191         2.94336484E-26
   40.1310120         2.81091632E-26
   40.2578049         2.44959769E-26
   40.3845978         1.83074833E-26
   40.5113907         9.36769398E-27
   40.6381836        -2.35885165E-27
   40.7649765        -1.67324131E-26
   40.8917694        -3.34016711E-26
   41.0185623        -5.17803614E-26
   41.1453552        -7.10261270E-26
   41.2721481        -9.00363498E-26
   41.3989410        -1.07458731E-25
   41.5257339        -1.21721583E-25
   41.6525269        -1.31093460E-25
   41.7793198        -1.33771063E-25
   41.9061089        -1.27986235E-25
   42.0329018        -1.12136356E-25
   42.1596947        -8.49490967E-26
   42.2864876        -4.56399729E-26
   42.4132805         5.91446653E-27
   42.5400734         6.90234495E-26
   42.6668663         1.42043576E-25
   42.7936592         2.22282144E-25
   42.9204521         3.05948929E-25
   43.0472450         3.88173183E-25
   43.1740379         4.63097294E-25
   43.3008308         5.24056865E-25
   43.4276237         5.63852778E-25
   43.5544167         5.75120916E-25
   43.6812096         5.50782487E-25
   43.8079987         4.84579061E-25
   43.9347916         3.71664814E-25
   44.0615845         2.09228518E-25
   44.1883774        -2.88375596E-27
   44.3151703        -2.61590418E-25
   44.4419632        -5.60086707E-25
   44.5687561        -8.87500862E-25
   44.6955490        -1.22874464E-24
   44.8223419        -1.56461045E-24
   44.9491348        -1.87216276E-24
   45.0759277        -2.12545160E-24
   45.2027206        -2.29657269E-24
   45.3295135        -2.35707379E-24
   45.4563065        -2.27967864E-24
   45.5830994        -2.04029091E-24
   45.7098885        -1.62018323E-24
   45.8366814        -1.00828917E-24
   45.9634743        -2.03451825E-25
   46.0902672         7.83509914E-25
   46.2170601         1.92808728E-24
   46.3438530         3.19090943E-24
   46.4706459         4.51726170E-24
   46.5974388         5.83748471E-24
   46.7242317         7.06838540E-24
   46.8510246         8.11575997E-24
   46.9778175         8.87807492E-24
   47.1046104         9.25131893E-24
   47.2314034         9.13491225E-24
   47.3581963         8.43852557E-24
   47.4849892         7.08955370E-24
   47.6117783         5.04090007E-24
   47.7385712         2.27864997E-24
   47.8653641        -1.17083268E-24
   47.9921570        -5.23493500E-24
   48.1189499        -9.79052982E-24
   48.2457428        -1.46619455E-23
   48.3725357        -1.96216907E-23
   48.4993286        -2.43944207E-23
   48.6261215        -2.86644190E-23
   48.7529144        -3.20867816E-23
   48.8797073        -3.43023259E-23
   49.0065002        -3.49559129E-23
   49.1332932        -3.37177547E-23
   49.2600861        -3.03069789E-23
   49.3868790        -2.45164227E-23
   49.5136681        -1.62374490E-23
   49.6404610        -5.48340410E-24
   49.7672539         7.58986664E-24
   49.8940468         2.26681169E-23
   50.0208397         3.92690730E-23
   50.1476326         5.67405056E-23
   50.2744255         7.42675813E-23
   50.4012184         9.08904141E-23
   50.5280113         1.05532442E-22
   50.6548042         1.17039973E-22
   50.7815971         1.24232277E-22
   50.9083900         1.25961296E-22
   51.0351830         1.21179259E-22
   51.1619759         1.09011527E-22
   51.2887688         8.88319163E-23
   51.4155579         6.03366385E-23
   51.5423508         2.36128110E-23
   51.6691437        -2.08029910E-23
   51.7959366        -7.18804377E-23
   51.9227295        -1.28070091E-22
   52.0495224        -1.87301214E-22
   52.1763153        -2.47005628E-22
   52.3031082        -3.04171184E-22
   52.4299011        -3.55425534E-22
   52.5566940        -3.97151253E-22
   52.6834869        -4.25630318E-22
   52.8102798        -4.37215491E-22
   52.9370728        -4.28524188E-22
   53.0638657        -3.96648250E-22
   53.1906586        -3.39371798E-22
   53.3174477        -2.55387899E-22
   53.4442406        -1.44503894E-22
   53.5710335        -7.82316988E-24
   53.6978264         1.52107693E-22
   53.8246193         3.31198619E-22
   53.9514122         5.23774460E-22
   54.0782051         7.22601234E-22
   54.2049980         9.18990491E-22
   54.3317909         1.10298628E-21
   54.4585838         1.26364067E-21
   54.5853767         1.38937555E-21
   54.7121696         1.46843017E-21
   54.8389626         1.48938383E-21
   54.9657555         1.44174420E-21
   55.0925484         1.31658406E-21
   55.2193375         1.10720619E-21
   55.3461304         8.09809668E-22
   55.4729233         4.24130700E-22
   55.5997162        -4.59752427E-23
   55.7265091        -5.92046799E-22
   55.8533020        -1.20065761E-21
   55.9800949        -1.85322829E-21
   56.1068878        -2.52604036E-21
   56.2336807        -3.19048429E-21
   56.3604736        -3.81357889E-21
   56.4872665        -4.35877412E-21
   56.6140594        -4.78705698E-21
   56.7408524        -5.05836171E-21
   56.8676453        -5.13327205E-21
   56.9944382        -4.97498813E-21
   57.1212273        -4.55151891E-21
   57.2480202        -3.83803403E-21
   57.3748131        -2.81929184E-21
   57.5016060        -1.49204924E-21
   57.6283989         1.32671107E-22
   57.7551918         2.02758992E-21
   57.8819847         4.14760678E-21
   58.0087776         6.42881460E-21
   58.1355705         8.78824875E-21
   58.2623634         1.11245485E-20
   58.3891563         1.33196128E-20
   58.5159492         1.52414329E-20
   58.6427422         1.67481133E-20
   58.7695351         1.76931574E-20
   58.8963280         1.79319428E-20
   59.0231171         1.73293337E-20
   59.1499100         1.57681967E-20
   59.2767029         1.31585961E-20
   59.4034958         9.44729925E-21
   59.5302887         4.62714212E-21
   59.6570816        -1.25423765E-21
   59.7838745        -8.08690299E-21
   59.9106674        -1.56929879E-20
   60.0374603        -2.38235464E-20
   60.1642532        -3.21585915E-20
   60.2910461        -4.03108571E-20
   60.4178391        -4.78337739E-20
   60.5446320        -5.42340775E-20
   60.6714249        -5.89891575E-20
   60.7982178        -6.15691726E-20
   60.9250069        -6.14635132E-20
   61.0517998        -5.82110585E-20
   61.1785927        -5.14332536E-20
   61.3053856        -4.08687419E-20
   61.4321785        -2.64079139E-20
   61.5589714        -8.12554460E-21
   61.6857643         1.36906679E-20
   61.8125572         3.85179754E-20
   61.9393501         6.55850053E-20
   62.0661430         9.38693865E-20
   62.1929359         1.22108286E-19
   62.3197289         1.48823880E-19
   62.4465218         1.72364704E-19
   62.5733147         1.90963653E-19
   62.7001076         2.02812201E-19
   62.8268967         2.06149642E-19
   62.9536896         1.99365055E-19
   63.0804825         1.81108662E-19
   63.2072754         1.50408009E-19
   63.3340683         1.06783479E-19
   63.4608612         5.03568622E-20
   63.5876541        -1.80543332E-20
   63.7144470        -9.68641164E-20
   63.8412399        -1.83674563E-19
   63.9680328        -2.75268854E-19
   64.0948257        -3.67647118E-19
   64.2216187        -4.56110285E-19
   64.3484116        -5.35395185E-19
   64.4752045        -5.99862281E-19
   64.6019974        -6.43733563E-19
   64.7287903        -6.61376963E-19
   64.8555832        -6.47628653E-19
   64.9823761        -5.98141435E-19
   65.1091690        -5.09746020E-19
   65.2359619        -3.80806528E-19
   65.3627548        -2.11550149E-19
   65.4895477        -4.35007539E-21
   65.6163330         2.36062044E-19
   65.7431259         5.02475568E-19
   65.8699188         7.85193131E-19
   65.9967117         1.07215418E-18
   66.1235046         1.34920251E-18
   66.2502975         1.60050556E-18
   66.3770905         1.80912734E-18
   66.5038834         1.95774460E-18
   66.6306763         2.02949508E-18
   66.7574692         2.00892537E-18
   66.8842621         1.88301028E-18
   67.0110550         1.64219329E-18
   67.1378479         1.28140203E-18
   67.2646408         8.00977082E-19
   67.3914337         2.07454817E-19
   67.5182266        -4.85860198E-19
   67.6450195        -1.25859046E-18
   67.7718124        -2.08330855E-18
   67.8986053        -2.92592994E-18
   68.0253983        -3.74650407E-18
   68.1521912        -4.50042915E-18
   68.2789841        -5.14007634E-18
   68.4057770        -5.61680079E-18
   68.5325699        -5.88328861E-18
   68.6593628        -5.89616285E-18
   68.7861557        -5.61875004E-18
   68.9129486        -5.02387856E-18
   69.0397415        -4.09658055E-18
   69.1665344        -2.83653177E-18
   69.2933273        -1.26007483E-18
   69.4201126         5.98340372E-19
   69.5469055         2.68544599E-18
   69.6736984         4.92931444E-18
   69.8004913         7.24048809E-18
   69.9272842         9.51415613E-18
   70.0540771         1.16333970E-17
   70.1808701         1.34734628E-17
   70.3076630         1.49070238E-17
   70.4344559         1.58102157E-17
   70.5612488         1.60693003E-17
   70.6880417         1.55876694E-17
   70.8148346         1.42928571E-17
   70.9416275         1.21432538E-17
   71.0684204         9.13407160E-18
   71.1952133         5.30223476E-18
   71.3220062         7.29756107E-19
   71.4487991        -4.45472453E-18
   71.5755920        -1.00765695E-17
   71.7023849        -1.59181496E-17
   71.8291779        -2.17243817E-17
   71.9559708        -2.72108309E-17
   72.0827637        -3.20742492E-17
   72.2095566        -3.60053059E-17
   72.3363495        -3.87031985E-17
   72.4631424        -3.98915196E-17
   72.5899353        -3.93348138E-17
   72.7167282        -3.68550190E-17
   72.8435211        -3.23469706E-17
   72.9703140        -2.57920705E-17
   73.0971069        -1.72692283E-17
   73.2238922        -6.96216167E-18
   73.3506851         4.83764670E-18
   73.4774780         1.77330698E-17
   73.6042709         3.12289467E-17
   73.7310638         4.47454485E-17
   73.8578568         5.76371708E-17
   73.9846497         6.92176200E-17
   74.1114426         7.87885100E-17
   74.2382355         8.56728828E-17
   74.3650284         8.92508293E-17
   74.4918213         8.89963092E-17
   74.6186142         8.45133079E-17
   74.7454071         7.55695532E-17
   74.8722000         6.21256514E-17
   74.9989929         4.43577920E-17
   75.1257858         2.26722282E-17
   75.2525787        -2.29020979E-18
   75.3793716        -2.96608108E-17
   75.5061646        -5.83616950E-17
   75.6329575        -8.71370718E-17
   75.7597504        -1.14596557E-16
   75.8865433        -1.39269951E-16
   76.0133362        -1.59671719E-16
   76.1401291        -1.74373154E-16
   76.2669220        -1.82079168E-16
   76.3937149        -1.81706778E-16
   76.5205078        -1.72460937E-16
   76.6473007        -1.53904298E-16
   76.7740936        -1.26016255E-16
   76.9008865        -8.92373694E-17
   77.0276718        -4.44955175E-17
   77.1544647         6.78956464E-18
   77.2812576         6.27258272E-17
   77.4080505         1.20994077E-16
   77.5348434         1.78919047E-16
   77.6616364         2.33565815E-16
   77.7884293         2.81859054E-16
   77.9152222         3.20721879E-16
   78.0420151         3.47229007E-16
   78.1688080         3.58768772E-16
   78.2956009         3.53205963E-16
   78.4223938         3.29038525E-16
   78.5491867         2.85538592E-16
   78.6759796         2.22870568E-16
   78.8027725         1.42176770E-16
   78.9295654         4.56240665E-17
   79.0563583        -6.35954190E-17
   79.1831512        -1.81313848E-16
   79.3099442        -3.02490606E-16
   79.4367371        -4.21368557E-16
   79.5635300        -5.31682263E-16
   79.6903229        -6.26912007E-16
   79.8171158        -7.00577404E-16
   79.9439087        -7.46559328E-16
   80.0707016        -7.59437776E-16
   80.1974945        -7.34831257E-16
   80.3242874        -6.69720893E-16
   80.4510803        -5.62742644E-16
   80.5778732        -4.14430192E-16
   80.7046585        -2.27391977E-16
   80.8314514        -6.40727196E-18
   80.9582443         2.41571308E-16
   81.0850372         5.07518478E-16
   81.2118301         7.80545149E-16
   81.3386230         1.04821757E-15
   81.4654160         1.29698055E-15
   81.5922089         1.51267760E-15
   81.7190018         1.68115171E-15
   81.8457947         1.78890648E-15
   81.9725876         1.82380551E-15
   82.0993805         1.77577577E-15
   82.2261734         1.63749076E-15
   82.3529663         1.40499271E-15
   82.4797592         1.07822445E-15
   82.6065521         6.61436011E-16
   82.7333450         1.63436529E-16
   82.8601379        -4.02335621E-16
   82.9869308        -1.01794355E-15
   83.1137238        -1.66129694E-15
   83.2405167        -2.30671530E-15
   83.3673096        -2.92570537E-15
   83.4941025        -3.48793789E-15
   83.6208954        -3.96239556E-15
   83.7476883        -4.31866440E-15
   83.8744812        -4.52831479E-15
   84.0012741        -4.56632794E-15
   84.1280670        -4.41250887E-15
   84.2548599        -4.05281633E-15
   84.3816528        -3.48055537E-15
   84.5084381        -2.69736202E-15
   84.6352310        -1.71392204E-15
   84.7620239        -5.50369716E-16
   84.8888168         7.63672941E-16
   85.0156097         2.18945608E-15
   85.1424026         3.67987365E-15
   85.2691956         5.18064875E-15
   85.3959885         6.63192112E-15
   85.5227814         7.97019717E-15
   85.6495743         9.13061622E-15
   85.7763672         1.00494632E-14
   85.9031601         1.06668401E-14
   86.0299530         1.09294050E-14
   86.1567459         1.07930691E-14
   86.2835388         1.02255393E-14
   86.4103317         9.20858730E-15
   86.5371246         7.73994313E-15
   86.6639175         5.83469794E-15
   86.7907104         3.52613294E-15
   86.9175034         8.65887530E-16
   87.0442963        -2.07657157E-15
   87.1710892        -5.21522463E-15
   87.2978821        -8.44951025E-15
   87.4246750        -1.16670496E-14
   87.5514679        -1.47470249E-14
   87.6782608        -1.75641277E-14
   87.8050537        -1.99929540E-14
   87.9318466        -2.19127254E-14
   88.0586395        -2.32121434E-14
   88.1854324        -2.37942414E-14
   88.3122177        -2.35810042E-14
   88.4390106        -2.25175916E-14
   88.5658035        -2.05759854E-14
   88.6925964        -1.77578475E-14
   88.8193893        -1.40964841E-14
   88.9461823        -9.65774769E-15
   89.0729752        -4.53979378E-15
   89.1997681         1.12835811E-15
   89.3265610         7.18950046E-15
   89.4533539         1.34620869E-14
   89.5801468         1.97452088E-14
   89.7069397         2.58245726E-14
   89.8337326         3.14792985E-14
   89.9605255         3.64893357E-14
   90.0873184         4.06432903E-14
   90.2141113         4.37463447E-14
   90.3409042         4.56280386E-14
   90.4676971         4.61495601E-14
   90.5944901         4.52103293E-14
   90.7212830         4.27535374E-14
   90.8480759         3.87704090E-14
   90.9748688         3.33030011E-14
   91.1016617         2.64453020E-14
   91.2284546         1.83425815E-14
   91.3552475         9.18888192E-15
   91.4820404        -7.77296989E-16
   91.6088333        -1.12791077E-14
   91.7356262        -2.20090449E-14
   91.8624191        -3.26380565E-14
   91.9892120        -4.28257791E-14
   92.1159973        -5.22316158E-14
   92.2427902        -6.05262300E-14
   92.3695831        -6.74031008E-14
   92.4963760        -7.25897071E-14
   92.6231689        -7.58579465E-14
   92.7499619        -7.70333301E-14
   92.8767548        -7.60025994E-14
   93.0035477        -7.27194929E-14
   93.1303406        -6.72082629E-14
   93.2571335        -5.95648273E-14
   93.3839264        -4.99554181E-14
   93.5107193        -3.86126813E-14
   93.6375122        -2.58292872E-14
   93.7643051        -1.19492547E-14
   93.8910980         2.64281416E-15
   94.0178909         1.75341936E-14
   94.1446838         3.22977627E-14
   94.2714767         4.65065439E-14
   94.3982697         5.97484708E-14
   94.5250626         7.16408337E-14
   94.6518555         8.18438470E-14
   94.7786484         9.00726637E-14
   94.9054413         9.61074888E-14
   95.0322342         9.98011691E-14
   95.1590271         1.01083956E-13
   95.2858200         9.99651886E-14
   95.4126129         9.65316965E-14
   95.5394058         9.09429324E-14
   95.6661987         8.34230010E-14
   95.7929916         7.42497562E-14
   95.9197769         6.37415468E-14
   96.0465698         5.22419632E-14
   96.1733627         4.01034051E-14
   96.3001556         2.76700863E-14
   96.4269485         1.52614449E-14
   96.5537415         3.15661651E-15
   96.6805344        -8.41907551E-15
   96.8073273        -1.93048685E-14
   96.9341202        -2.94118503E-14
   97.0609131        -3.87262345E-14
   97.1877060        -4.73081657E-14
   97.3144989        -5.52859286E-14
   97.4412918        -6.28454604E-14
   97.5680847        -7.02154467E-14
   97.6948776        -7.76485132E-14
   97.8216705        -8.53991560E-14
   97.9484634        -9.36994013E-14
   98.0752563        -1.02733299E-13