  -4.50000000         0.00000000    
  -4.37320757         0.00000000    
  -4.24641466         0.00000000    
  -4.11962223         0.00000000    
  -3.99282932         0.00000000    
  -3.86603665         0.00000000    
  -3.73924398         0.00000000    
  -3.61245155         0.00000000    
  -3.48565888         0.00000000    
  -3.35886621         0.00000000    
  -3.23207355         0.00000000    
  -3.10528088         0.00000000    
  -2.97848821         0.00000000    
  -2.85169554         0.00000000    
  -2.72490287         0.00000000    
  -2.59811020         0.00000000    
  -2.47131753         0.00000000    
  -2.34452486         0.00000000    
  -2.21773219         0.00000000    
  -2.09093952         0.00000000    
  -1.96414697         0.00000000    
  -1.83735430         0.00000000    
  -1.71056163         0.00000000    
  -1.58376896         0.00000000    
  -1.45697629         0.00000000    
  -1.33018374         0.00000000    
  -1.20339108         0.00000000    
  -1.07659841         0.00000000    
 -0.949805737         0.00000000    
 -0.823013067         0.00000000    
 -0.696220458         0.00000000    
 -0.569427788         0.00000000    
 -0.442635119         0.00000000    
 -0.315842479         0.00000000    
 -0.189049825         0.00000000    
  -6.22571707E-02     0.00000000    
   6.45354837E-02     0.00000000    
  0.191328138         0.00000000    
  0.318120778         0.00000000    
  0.444913447         0.00000000    
  0.571706116         0.00000000    
  0.698498726         0.00000000    
  0.825291395         0.00000000    
  0.952084064         0.00000000    
   1.07887673         0.00000000    
   1.20566940         0.00000000    
   1.33246195         0.00000000    
   1.45925462         0.00000000    
   1.58604729         0.00000000    
   1.71283996         0.00000000    
   1.83963263         0.00000000    
   1.96642530         0.00000000    
   2.09321785         0.00000000    
   2.22001052         0.00000000    
   2.34680319         0.00000000    
   2.47359586         0.00000000    
   2.60038853         0.00000000    
   2.72718120         0.00000000    
   2.85397387         0.00000000    
   2.98076653         0.00000000    
   3.10755920         0.00000000    
   3.23435187         0.00000000    
   3.36114454         0.00000000    
   3.48793697         0.00000000    
   3.61472964         0.00000000    
   3.74152231         0.00000000    
   3.86831498         0.00000000    
   3.99510765         0.00000000    
   4.12190056         0.00000000    
   4.24869299         0.00000000    
   4.37548542         0.00000000    
   4.50227833         0.00000000    
   4.62907076         0.00000000    
   4.75586367         0.00000000    
   4.88265610         0.00000000    
   5.00944901         0.00000000    
   5.13624144         0.00000000    
   5.26303434         0.00000000    
   5.38982677         0.00000000    
   5.51661968         0.00000000    
   5.64341211         0.00000000    
   5.77020502         0.00000000    
   5.89699745         0.00000000    
   6.02379036         0.00000000    
   6.15058279         0.00000000    
   6.27737522         0.00000000    
   6.40416813         0.00000000    
   6.53096056         0.00000000    
   6.65775347         0.00000000    
   6.78454590         0.00000000    
   6.91133881         0.00000000    
   7.03813124         0.00000000    
   7.16492414         0.00000000    
   7.29171658         0.00000000    
   7.41850948         0.00000000    
   7.54530191         0.00000000    
   7.67209482         0.00000000    
   7.79888725         0.00000000    
   7.92567968         0.00000000    
   8.05247211         0.00000000    
   8.17926502         0.00000000    
   8.30605793         0.00000000    
   8.43285084         0.00000000    
   8.55964279         0.00000000    
   8.68643570         0.00000000    
   8.81322861         0.00000000    
   8.94002151         0.00000000    
   9.06681347         0.00000000    
   9.19360638         0.00000000    
   9.32039928         0.00000000    
   9.44719219         0.00000000    
   9.57398415         0.00000000    
   9.70077705         0.00000000    
   9.82756996         0.00000000    
   9.95436192         0.00000000    
   10.0811548         0.00000000    
   10.2079477         0.00000000    
   10.3347406         0.00000000    
   10.4615326         0.00000000    
   10.5883255         0.00000000    
   10.7151184         0.00000000    
   10.8419113         0.00000000    
   10.9687033         0.00000000    
   11.0954962         0.00000000    
   11.2222891         0.00000000    
   11.3490820         0.00000000    
   11.4758739         0.00000000    
   11.6026669         0.00000000    
   11.7294598         0.00000000    
   11.8562517         0.00000000    
   11.9830446         0.00000000    
   12.1098375         0.00000000    
   12.2366304         0.00000000    
   12.3634224         0.00000000    
   12.4902153         0.00000000    
   12.6170082         0.00000000    
   12.7438011         0.00000000    
   12.8705931         0.00000000    
   12.9973860         0.00000000    
   13.1241789         0.00000000    
   13.2509708         0.00000000    
   13.3777637         0.00000000    
   13.5045567         0.00000000    
   13.6313496         0.00000000    
   13.7581415         0.00000000    
   13.8849344         0.00000000    
   14.0117273         0.00000000    
   14.1385202         0.00000000    
   14.2653122         0.00000000    
   14.3921051         0.00000000    
   14.5188980         0.00000000    
   14.6456909         0.00000000    
   14.7724829         0.00000000    
   14.8992758         0.00000000    
   15.0260687         0.00000000    
   15.1528606         0.00000000    
   15.2796535         0.00000000    
   15.4064465         0.00000000    
   15.5332394         0.00000000    
   15.6600313         0.00000000    
   15.7868242         0.00000000    
   15.9136171         0.00000000    
   16.0404091         0.00000000    
   16.1672020         0.00000000    
   16.2939949         0.00000000    
   16.4207878         0.00000000    
   16.5475807         0.00000000    
   16.6743736         0.00000000    
   16.8011646         0.00000000    
   16.9279575         0.00000000    
   17.0547504         0.00000000    
   17.1815434         0.00000000    
   17.3083363         0.00000000    
   17.4351292         0.00000000    
   17.5619221         0.00000000    
   17.6887150         0.00000000    
   17.8155060         0.00000000    
   17.9422989         0.00000000    
   18.0690918         0.00000000    
   18.1958847         0.00000000    
   18.3226776         0.00000000    
   18.4494705         0.00000000    
   18.5762634         0.00000000    
   18.7030544         0.00000000    
   18.8298473         0.00000000    
   18.9566402         0.00000000    
   19.0834332         0.00000000    
   19.2102261         0.00000000    
   19.3370190         0.00000000    
   19.4638119         0.00000000    
   19.5906048         0.00000000    
   19.7173958         0.00000000    
   19.8441887         0.00000000    
   19.9709816         0.00000000    
   20.0977745         0.00000000    
   20.2245674         0.00000000    
   20.3513603         0.00000000    
   20.4781532         0.00000000    
   20.6049442         0.00000000    
   20.7317371         0.00000000    
   20.8585300         0.00000000    
   20.9853230         0.00000000    
   21.1121159         0.00000000    
   21.2389088         0.00000000    
   21.3657017         0.00000000    
   21.4924946         0.00000000    
   21.6192856         0.00000000    
   21.7460785         0.00000000    
   21.8728714         0.00000000    
   21.9996643         0.00000000    
   22.1264572         0.00000000    
   22.2532501         0.00000000    
   22.3800430         0.00000000    
   22.5068340         0.00000000    
   22.6336269         0.00000000    
   22.7604198         0.00000000    
   22.8872128         0.00000000    
   23.0140057         0.00000000    
   23.1407986         0.00000000    
   23.2675915         0.00000000    
   23.3943844         0.00000000    
   23.5211754         0.00000000    
   23.6479683         0.00000000    
   23.7747612         0.00000000    
   23.9015541         0.00000000    
   24.0283470         0.00000000    
   24.1551399         0.00000000    
   24.2819328         0.00000000    
   24.4087238         0.00000000    
   24.5355167         0.00000000    
   24.6623096         0.00000000    
   24.7891026         0.00000000    
   24.9158955         0.00000000    
   25.0426884         0.00000000    
   25.1694813         0.00000000    
   25.2962742         0.00000000    
   25.4230652         0.00000000    
   25.5498581         0.00000000    
   25.6766510         0.00000000    
   25.8034439         0.00000000    
   25.9302368         0.00000000    
   26.0570297         0.00000000    
   26.1838226         0.00000000    
   26.3106136         0.00000000    
   26.4374065         0.00000000    
   26.5641994         0.00000000    
   26.6909924         0.00000000    
   26.8177853         0.00000000    
   26.9445782         0.00000000    
   27.0713711         0.00000000    
   27.1981640         0.00000000    
   27.3249550         0.00000000    
   27.4517479         0.00000000    
   27.5785408         0.00000000    
   27.7053337         0.00000000    
   27.8321266         0.00000000    
   27.9589195         0.00000000    
   28.0857124         0.00000000    
   28.2125034         0.00000000    
   28.3392963         0.00000000    
   28.4660892         0.00000000    
   28.5928822         0.00000000    
   28.7196751         0.00000000    
   28.8464680         0.00000000    
   28.9732609         1.42096163E-33
   29.1000538         2.02729650E-33
   29.2268448         1.69086303E-33
   29.3536377        -2.02141094E-33
   29.4804306        -3.58376783E-33
   29.6072235         1.17721498E-33
   29.7340164         6.96042825E-33
   29.8608093         4.51939925E-33
   29.9876022        -1.20303501E-32
   30.1143932        -4.51788441E-32
   30.2411861        -1.04304541E-31
   30.3679790        -1.55929384E-31
   30.4947720        -1.90122470E-31
   30.6215649        -1.75929151E-31
   30.7483578        -1.09374401E-31
   30.8751507         2.35534079E-33
   31.0019417         1.39455090E-31
   31.1287346         2.64220802E-31
   31.2555275         3.66960936E-31
   31.3823204         4.54435725E-31
   31.5091133         4.33649035E-31
   31.6359062         5.48278025E-31
   31.7626991         1.07265044E-30
   31.8894920         1.87354371E-30
   32.0162849         2.86294038E-30
   32.1430779         3.43849965E-30
   32.2698708         3.45888404E-30
   32.3966637         3.30042966E-30
   32.5234528         4.11870200E-30
   32.6502457         4.82418894E-30
   32.7770386         4.91080125E-30
   32.9038315         3.13129859E-30
   33.0306244         7.73852522E-31
   33.1574173        -6.57729225E-30
   33.2842102        -1.14388841E-29
   33.4110031        -1.21321564E-29
   33.5377960        -8.93284977E-30
   33.6645889         3.14914598E-30
   33.7913818         2.10552743E-29
   33.9181747         3.75160380E-29
   34.0449677         4.90942594E-29
   34.1717606         6.32467148E-29
   34.2985535         7.65018855E-29
   34.4253426         8.53974430E-29
   34.5521355         9.03554126E-29
   34.6789284         8.70381307E-29
   34.8057213         7.58506444E-29
   34.9325142         6.25379245E-29
   35.0593071         4.86602450E-29
   35.1861000         3.78906223E-29
   35.3128929         3.48671621E-29
   35.4396858         5.17601918E-29
   35.5664787         9.74129227E-29
   35.6932716         1.54375563E-28
   35.8200645         2.17424226E-28
   35.9468575         2.80974883E-28
   36.0736504         3.34799713E-28
   36.2004433         3.63671979E-28
   36.3272324         3.67273902E-28
   36.4540253         3.33099671E-28
   36.5808182         2.60049148E-28
   36.7076111         1.29333394E-28
   36.8344040        -4.92050666E-29
   36.9611969        -2.80003684E-28
   37.0879898        -5.41700297E-28
   37.2147827        -8.12820918E-28
   37.3415756        -1.07314261E-27
   37.4683685        -1.29910427E-27
   37.5951614        -1.46749448E-27
   37.7219543        -1.56185311E-27
   37.8487473        -1.56259585E-27
   37.9755402        -1.46300235E-27
   38.1023293        -1.26044719E-27
   38.2291222        -9.48902410E-28
   38.3559151        -5.35831507E-28
   38.4827080        -2.37124843E-29
   38.6095009         5.82118344E-28
   38.7362938         1.27467808E-27
   38.8630867         2.02403219E-27
   38.9898796         2.81318545E-27
   39.1166725         3.61212398E-27
   39.2434654         4.38316310E-27
   39.3702583         5.09059068E-27
   39.4970512         5.68706120E-27
   39.6238441         6.11652894E-27
   39.7506371         6.32028578E-27
   39.8774300         6.23439085E-27
   40.0042191         5.79577994E-27
   40.1310120         4.94407787E-27
   40.2578049         3.62323352E-27
   40.3845978         1.79780996E-27
   40.5113907        -5.43840198E-28
   40.6381836        -3.39134154E-27
   40.7649765        -6.69231767E-27
   40.8917694        -1.03520529E-26
   41.0185623        -1.42300816E-26
   41.1453552        -1.81397456E-26
   41.2721481        -2.18514440E-26
   41.3989410        -2.50966359E-26
   41.5257339        -2.75807127E-26
   41.6525269        -2.89942867E-26
   41.7793198        -2.90361241E-26
   41.9061089        -2.74259727E-26
   42.0329018        -2.39282066E-26
   42.1596947        -1.83770202E-26
   42.2864876        -1.06907948E-26
   42.4132805        -8.93222427E-28
   42.5400734         1.08669010E-26
   42.6668663         2.43042190E-26
   42.7936592         3.89765388E-26
   42.9204521         5.42862397E-26
   43.0472450         6.94779813E-26
   43.1740379         8.36530907E-26
   43.3008308         9.57904676E-26
   43.4276237         1.04785910E-25
   43.5544167         1.09503730E-25
   43.6812096         1.08847792E-25
   43.8079987         1.01840753E-25
   43.9347916         8.77175116E-26
   44.0615845         6.60245516E-26
   44.1883774         3.67173706E-26
   44.3151703         2.50672421E-28
   44.4419632        -4.23486203E-26
   44.5687561        -8.94354226E-26
   44.6955490        -1.38733664E-25
   44.8223419        -1.87368578E-25
   44.9491348        -2.31950202E-25
   45.0759277        -2.68712279E-25
   45.2027206        -2.93707213E-25
   45.3295135        -3.03057212E-25
   45.4563065        -2.93253939E-25
   45.5830994        -2.61496124E-25
   45.7098885        -2.06054351E-25
   45.8366814        -1.26641930E-25
   45.9634743        -2.47610635E-26
   46.0902672         9.59975004E-26
   46.2170601         2.29740923E-25
   46.3438530         3.68190079E-25
   46.4706459         5.00752583E-25
   46.5974388         6.14795197E-25
   46.7242317         6.96152838E-25
   46.8510246         7.29883248E-25
   46.9778175         7.01268354E-25
   47.1046104         5.97065301E-25
   47.2314034         4.06952412E-25
   47.3581963         1.25117296E-25
   47.4849892        -2.48095966E-25
   47.6117783        -7.04602771E-25
   47.7385712        -1.22718969E-24
   47.8653641        -1.78845811E-24
   47.9921570        -2.35029195E-24
   48.1189499        -2.86401513E-24
   48.2457428        -3.27138349E-24
   48.3725357        -3.50656916E-24
   48.4993286        -3.49923078E-24
   48.6261215        -3.17872784E-24
   48.7529144        -2.47942710E-24
   48.8797073        -1.34704646E-24
   49.0065002         2.54226007E-25
   49.1332932         2.33413529E-24
   49.2600861         4.86869292E-24
   49.3868790         7.79300305E-24
   49.5136681         1.09952025E-23
   49.6404610         1.43122545E-23
   49.7672539         1.75283031E-23
   49.8940468         2.03764081E-23
   50.0208397         2.25443494E-23
   50.1476326         2.36850722E-23
   50.2744255         2.34321776E-23
   50.4012184         2.14207464E-23
   50.5280113         1.73131192E-23
   50.6548042         1.08293019E-23
   50.7815971         1.78078210E-24
   50.9083900        -9.89343120E-24
   51.0351830        -2.40907944E-23
   51.1619759        -4.05113396E-23
   51.2887688        -5.86290576E-23
   51.4155579        -7.76712573E-23
   51.5423508        -9.66097756E-23
   51.6691437        -1.14166702E-22
   51.7959366        -1.28838050E-22
   51.9227295        -1.38937906E-22
   52.0495224        -1.42664864E-22
   52.1763153        -1.38191467E-22
   52.3031082        -1.23776025E-22
   52.4299011        -9.78950067E-23
   52.5566940        -5.93915768E-23
   52.6834869        -7.63490586E-24
   52.8102798         5.73180338E-23
   52.9370728         1.34567377E-22
   53.0638657         2.22233906E-22
   53.1906586         3.17353416E-22
   53.3174477         4.15816156E-22
   53.4442406         5.12363669E-22
   53.5710335         6.00657020E-22
   53.6978264         6.73426851E-22
   53.8246193         7.22713618E-22
   53.9514122         7.40201996E-22
   54.0782051         7.17650267E-22
   54.2049980         6.47406457E-22
   54.3317909         5.22999432E-22
   54.4585838         3.39783243E-22
   54.5853767         9.56076067E-23
   54.7121696        -2.08521370E-22
   54.8389626        -5.67831773E-22
   54.9657555        -9.73276239E-22
   55.0925484        -1.41117053E-21
   55.2193375        -1.86303510E-21
   55.3461304        -2.30568760E-21
   55.4729233        -2.71163436E-21
   55.5997162        -3.04979250E-21
   55.7265091        -3.28657154E-21
   55.8533020        -3.38731592E-21
   55.9800949        -3.31809972E-21
   56.1068878        -3.04783542E-21
   56.2336807        -2.55062980E-21
   56.3604736        -1.80830487E-21
   56.4872665        -8.12967384E-22
   56.6140594         4.30521457E-22
   56.7408524         1.90232699E-21
   56.8676453         3.56585405E-21
   56.9944382         5.36657656E-21
   57.1212273         7.23166609E-21
   57.2480202         9.07059360E-21
   57.3748131         1.07768386E-20
   57.5016060         1.22308315E-20
   57.6283989         1.33041767E-20
   57.7551918         1.38651530E-20
   57.8819847         1.37854221E-20
   58.0087776         1.29477604E-20
   58.1355705         1.12546121E-20
   58.2623634         8.63707341E-21
   58.3891563         5.06391893E-21
   58.5159492         5.50158159E-22
   58.6427422        -4.83542240E-21
   58.7695351        -1.09643566E-20
   58.8963280        -1.76448320E-20
   59.0231171        -2.46208500E-20
   59.1499100        -3.15747603E-20
   59.2767029        -3.81336014E-20
   59.4034958        -4.38795663E-20
   59.5302887        -4.83646914E-20
   59.6570816        -5.11297365E-20
   59.7838745        -5.17268575E-20
   59.9106674        -4.97455208E-20
   60.0374603        -4.48408051E-20
   60.1642532        -3.67628791E-20
   60.2910461        -2.53863523E-20
   60.4178391        -1.07377802E-20
   60.5446320         6.98037605E-21
   60.6714249         2.73712417E-20
   60.7982178         4.98323263E-20
   60.9250069         7.35535075E-20
   61.0517998         9.75255765E-20
   61.1785927         1.20560786E-19
   61.3053856         1.41326108E-19
   61.4321785         1.58389397E-19
   61.5589714         1.70278153E-19
   61.6857643         1.75549646E-19
   61.8125572         1.72870460E-19
   61.9393501         1.61102717E-19
   62.0661430         1.39393478E-19
   62.1929359         1.07263043E-19
   62.3197289         6.46874820E-20
   62.4465218         1.21699182E-20
   62.5733147        -4.92045350E-20
   62.7001076        -1.17735861E-19
   62.8268967        -1.91102813E-19
   62.9536896        -2.66388036E-19
   63.0804825        -3.40137159E-19
   63.2072754        -4.08454781E-19
   63.3340683        -4.67136602E-19
   63.4608612        -5.11837288E-19
   63.5876541        -5.38269482E-19
   63.7144470        -5.42428960E-19
   63.8412399        -5.20837271E-19
   63.9680328        -4.70792896E-19
   64.0948257        -3.90618131E-19
   64.2216187        -2.79888942E-19
   64.3484116        -1.39633839E-19
   64.4752045         2.75132324E-20
   64.6019974         2.17219981E-19
   64.7287903         4.23435617E-19
   64.8555832         6.38454341E-19
   64.9823761         8.53071521E-19
   65.1091690         1.05683614E-18
   65.2359619         1.23839970E-18
   65.3627548         1.38595766E-18
   65.4895477         1.48777243E-18
   65.6163330         1.53276288E-18
   65.7431259         1.51113842E-18
   65.8699188         1.41505229E-18
   65.9967117         1.23924425E-18
   66.1235046         9.81636119E-19
   66.2502975         6.43848437E-19
   66.3770905         2.31597078E-19
   66.5038834        -2.45060838E-19
   66.6306763        -7.71666402E-19
   66.7574692        -1.32950765E-18
   66.8842621        -1.89599909E-18
   67.0110550        -2.44529913E-18
   67.1378479        -2.94916668E-18
   67.2646408        -3.37804081E-18
   67.3914337        -3.70231939E-18
   67.5182266        -3.89379598E-18
   67.6450195        -3.92720457E-18
   67.7718124        -3.78180193E-18
   67.8986053        -3.44292341E-18
   68.0253983        -2.90342235E-18
   68.1521912        -2.16491385E-18
   68.2789841        -1.23873202E-18
   68.4057770        -1.46527989E-19
   68.5325699         1.07957482E-18
   68.6593628         2.39731603E-18
   68.7861557         3.75516961E-18
   68.9129486         5.09377490E-18
   69.0397415         6.34791099E-18
   69.1665344         7.44898475E-18
   69.2933273         8.32797003E-18
   69.4201126         8.91869611E-18
   69.5469055         9.16137187E-18
   69.6736984         9.00618617E-18
   69.8004913         8.41682908E-18
   69.9272842         7.37374027E-18
   70.0540771         5.87689450E-18
   70.1808701         3.94794736E-18
   70.3076630         1.63154820E-18
   70.4344559        -1.00432734E-18
   70.5612488        -3.86914435E-18
   70.6880417        -6.85175828E-18
   70.8148346        -9.82359365E-18
   70.9416275        -1.26430032E-17
   71.0684204        -1.51607400E-17
   71.1952133        -1.72263704E-17
   71.3220062        -1.86954515E-17
   71.4487991        -1.94371347E-17
   71.5755920        -1.93419543E-17
   71.7023849        -1.83293347E-17
   71.8291779        -1.63545171E-17
   71.9559708        -1.34144376E-17
   72.0827637        -9.55217666E-18
   72.2095566        -4.85962406E-18
   72.3363495         5.21970043E-19
   72.4631424         6.40380317E-18
   72.5899353         1.25538199E-17
   72.7167282         1.87035843E-17
   72.8435211         2.45576176E-17
   72.9703140         2.98050182E-17
   73.0971069         3.41330058E-17
   73.2238922         3.72419476E-17
   73.3506851         3.88612330E-17
   73.4774780         3.87653793E-17
   73.6042709         3.67895195E-17
   73.7310638         3.28435040E-17
   73.8578568         2.69237893E-17
   73.9846497         1.91222866E-17
   74.1114426         9.63144621E-18
   74.2382355        -1.25502955E-18
   74.3650284        -1.31463401E-17
   74.4918213        -2.55638762E-17
   74.6186142        -3.79556820E-17
   74.7454071        -4.97159139E-17
   74.8722000        -6.02088423E-17
   74.9989929        -6.87966645E-17
   75.1257858        -7.48701687E-17
   75.2525787        -7.78810002E-17
   75.3793716        -7.73742363E-17
   75.5061646        -7.30195009E-17
   75.6329575        -6.46393209E-17
   75.7597504        -5.22327003E-17
   75.8865433        -3.59926269E-17
   76.0133362        -1.63159341E-17
   76.1401291         6.19563118E-18
   76.2669220         3.07440733E-17
   76.3937149         5.63539953E-17
   76.5205078         8.19017002E-17
   76.6473007         1.06154159E-16
   76.7740936         1.27816941E-16
   76.9008865         1.45589611E-16
   77.0276718         1.58226562E-16
   77.1544647         1.64601266E-16
   77.2812576         1.63770723E-16
   77.4080505         1.55037575E-16
   77.5348434         1.38006324E-16
   77.6616364         1.12630778E-16
   77.7884293         7.92496929E-17
   77.9152222         3.86073845E-17
   78.0420151        -8.14217865E-18
   78.1688080        -5.94501985E-17
   78.2956009        -1.13407455E-16
   78.4223938        -1.67798497E-16
   78.5491867        -2.20174766E-16
   78.6759796        -2.67945267E-16
   78.8027725        -3.08481617E-16
   78.9295654        -3.39234313E-16
   79.0563583        -3.57855830E-16
   79.1831512        -3.62324828E-16
   79.3099442        -3.51067125E-16
   79.4367371        -3.23066413E-16
   79.5635300        -2.77959394E-16
   79.6903229        -2.16109683E-16
   79.8171158        -1.38655297E-16
   79.9439087        -4.75252551E-17
   80.0707016         5.45777805E-17
   80.1974945         1.64230967E-16
   80.3242874         2.77381188E-16
   80.4510803         3.89470328E-16
   80.5778732         4.95593578E-16
   80.7046585         5.90685308E-16
   80.8314514         6.69727299E-16
   80.9582443         7.27971190E-16
   81.0850372         7.61166729E-16
   81.2118301         7.65785388E-16
   81.3386230         7.39230111E-16
   81.4654160         6.80019702E-16
   81.5922089         5.87938645E-16
   81.7190018         4.64142556E-16
   81.8457947         3.11211869E-16
   81.9725876         1.33147266E-16
   82.0993805        -6.46972169E-17
   82.2261734        -2.75744641E-16
   82.3529663        -4.92387823E-16
   82.4797592        -7.06240348E-16
   82.6065521        -9.08439130E-16
   82.7333450        -1.08998783E-15
   82.8601379        -1.24212935E-15
   82.9869308        -1.35673396E-15
   83.1137238        -1.42668449E-15
   83.2405167        -1.44624375E-15
   83.3673096        -1.41138633E-15
   83.4941025        -1.32007628E-15
   83.6208954        -1.17247677E-15
   83.7476883        -9.71077746E-16
   83.8744812        -7.20728794E-16
   84.0012741        -4.28572943E-16
   84.1280670        -1.03875932E-16
   84.2548599         2.42248749E-16
   84.3816528         5.97210267E-16
   84.5084381         9.47398305E-16
   84.6352310         1.27871249E-15
   84.7620239         1.57714401E-15
   84.8888168         1.82938576E-15
   85.0156097         2.02344651E-15
   85.1424026         2.14924171E-15
   85.2691956         2.19913110E-15
   85.3959885         2.16837724E-15
   85.5227814         2.05549824E-15
   85.6495743         1.86249183E-15
   85.7763672         1.59491497E-15
   85.9031601         1.26180264E-15
   86.0299530         8.75422792E-16
   86.1567459         4.50866585E-16
   86.2835388         5.48459127E-18
   86.4103317        -4.41815985E-16
   86.5371246        -8.71389697E-16
   86.6639175        -1.26375442E-15
   86.7907104        -1.60053853E-15
   86.9175034        -1.86543442E-15
   87.0442963        -2.04510938E-15
   87.1710892        -2.13003227E-15
   87.2978821        -2.11516832E-15
   87.4246750        -2.00049510E-15
   87.5514679        -1.79130972E-15
   87.6782608        -1.49829053E-15
   87.8050537        -1.13729515E-15
   87.9318466        -7.28882545E-16
   88.0586395        -2.97561721E-16
   88.1854324         1.29220660E-16
   88.3122177         5.22323079E-16
   88.4390106         8.52341779E-16
   88.5658035         1.09118469E-15
   88.6925964         1.21371669E-15
   88.8193893         1.19940458E-15
   88.9461823         1.03388196E-15
   89.0729752         7.10360952E-16
   89.1997681         2.30787176E-16
   89.3265610        -3.93314799E-16
   89.4533539        -1.14040016E-15
   89.5801468        -1.97889999E-15
   89.7069397        -2.86773190E-15
   89.8337326        -3.75730856E-15
   89.9605255        -4.59108925E-15
   90.0873184        -5.30762830E-15
   90.2141113        -5.84307849E-15
   90.3409042        -6.13409953E-15
   90.4676971        -6.12104759E-15
   90.5944901        -5.75136684E-15
   90.7212830        -4.98301224E-15
   90.8480759        -3.78778353E-15
   90.9748688        -2.15439336E-15
   91.1016617        -9.11171738E-17
   91.2284546         2.37214457E-15
   91.3552475         5.18254017E-15
   91.4820404         8.26381522E-15
   91.6088333         1.15168241E-14
   91.7356262         1.48211199E-14
   91.8624191         1.80376428E-14
   91.9892120         2.10124988E-14
   92.1159973         2.35818021E-14
   92.2427902         2.55774778E-14
   92.3695831         2.68338733E-14
   92.4963760         2.71950092E-14
   92.6231689         2.65222008E-14
   92.7499619         2.47017999E-14
   92.8767548         2.16527591E-14
   93.0035477         1.73336551E-14
   93.1303406         1.17488798E-14
   93.2571335         4.95362952E-15
   93.3839264        -2.94260241E-15
   93.5107193        -1.17743517E-14
   93.6375122        -2.13205020E-14
   93.7643051        -3.13068764E-14
   93.8910980        -4.14111426E-14
   94.0178909        -5.12700742E-14
   94.1446838        -6.04891706E-14
   94.2714767        -6.86543853E-14
   94.3982697        -7.53458372E-14
   94.5250626        -8.01529999E-14
   94.6518555        -8.26911171E-14
   94.7786484        -8.26181232E-14
   94.9054413        -7.96516783E-14
   95.0322342        -7.35854994E-14
   95.1590271        -6.43044510E-14
   95.2858200        -5.17975826E-14
   95.4126129        -3.61685948E-14
   95.5394058        -1.76429695E-14
   95.6661987         3.42872605E-15
   95.7929916         2.65717946E-14
   95.9197769         5.11930315E-14
   96.0465698         7.65911111E-14
   96.1733627         1.01971844E-13
   96.3001556         1.26468091E-13
   96.4269485         1.49164047E-13
   96.5537415         1.69123287E-13
   96.6805344         1.85419984E-13
   96.8073273         1.97172262E-13
   96.9341202         2.03576793E-13
   97.0609131         2.03943348E-13
   97.1877060         1.97728268E-13
   97.3144989         1.84565186E-13
   97.4412918         1.64292150E-13
   97.5680847         1.36973522E-13
   97.6948776         1.02915614E-13
   97.8216705         6.26751933E-14
   97.9484634         1.70596789E-14
   98.0752563        -3.28812769E-14