  -4.50000000         0.00000000    
  -4.37320757         0.00000000    
  -4.24641466         0.00000000    
  -4.11962223         0.00000000    
  -3.99282932         1.38581562E-23
  -3.86603665        -4.67306408E-22
  -3.73924398        -5.00738994E-21
  -3.61245155        -2.43511843E-20
  -3.48565888        -7.36021819E-20
  -3.35886621        -1.44653649E-19
  -3.23207355        -1.45031877E-19
  -3.10528088         1.61620674E-19
  -2.97848821         1.11967581E-18
  -2.85169554         2.95422758E-18
  -2.72490287         5.37622275E-18
  -2.59811020         7.24549253E-18
  -2.47131753         6.61233458E-18
  -2.34452486         1.23879075E-18
  -2.21773219        -1.08019423E-17
  -2.09093952        -3.12056765E-17
  -1.96414697        -6.25535817E-17
  -1.83735430        -1.09466138E-16
  -1.71056163        -1.77263019E-16
  -1.58376896        -2.65516453E-16
  -1.45697629        -3.56666489E-16
  -1.33018374        -4.05164128E-16
  -1.20339108        -3.37530533E-16
  -1.07659841        -7.38187096E-17
 -0.949805737         4.27000638E-16
 -0.823013067         1.11024738E-15
 -0.696220458         1.78557362E-15
 -0.569427788         2.13880753E-15
 -0.442635119         1.82021705E-15
 -0.315842479         6.05053951E-16
 -0.189049825        -1.41681518E-15
  -6.22571707E-02    -3.69895011E-15
   6.45354837E-02    -5.23117892E-15
  0.191328138        -4.72943006E-15
  0.318120778        -1.02439752E-15
  0.444913447         6.43014389E-15
  0.571706116         1.70833298E-14
  0.698498726         2.90380851E-14
  0.825291395         3.91910354E-14
  0.952084064         4.38294488E-14
   1.07887673         3.96067592E-14
   1.20566940         2.46656977E-14
   1.33246195        -4.24329043E-16
   1.45925462        -3.22525074E-14
   1.58604729        -6.48968319E-14
   1.71283996        -9.10119555E-14
   1.83963263        -1.03446643E-13
   1.96642530        -9.69760229E-14
   2.09321785        -6.96753853E-14
   2.22001052        -2.35680887E-14
   2.34680319         3.55803305E-14
   2.47359586         9.91612188E-14
   2.60038853         1.56935988E-13
   2.72718120         1.98138137E-13
   2.85397387         2.12203315E-13
   2.98076653         1.89187763E-13
   3.10755920         1.20278299E-13
   3.23435187        -1.01937419E-15
   3.36114454        -1.76539325E-13
   3.48793697        -3.99941229E-13
   3.61472964        -6.52689274E-13
   3.74152231        -9.00883318E-13
   3.86831498        -1.09470224E-12
   3.99510765        -1.17207166E-12
   4.12190056        -1.06736690E-12
   4.24869299        -7.24607115E-13
   4.37548542        -1.13033836E-13
   4.50227833         7.58343854E-13
   4.62907076         1.83120554E-12
   4.75586367         2.99682826E-12
   4.88265610         4.10526604E-12
   5.00944901         4.98420879E-12
   5.13624144         5.46434209E-12
   5.26303434         5.40605278E-12
   5.38982677         4.72153436E-12
   5.51661968         3.38724057E-12
   5.64341211         1.44394208E-12
   5.77020502        -1.01508526E-12
   5.89699745        -3.86391873E-12
   6.02379036        -6.96582505E-12
   6.15058279        -1.01906625E-11
   6.27737522        -1.34232538E-11
   6.40416813        -1.65619012E-11
   6.53096056        -1.95109710E-11
   6.65775347        -2.21755305E-11
   6.78454590        -2.44681202E-11
   6.91133881        -2.63362700E-11
   7.03813124        -2.78143480E-11
   7.16492414        -2.90947821E-11
   7.29171658        -3.06039916E-11
   7.41850948        -3.30594510E-11
   7.54530191        -3.74793634E-11
   7.67209482        -4.51173994E-11
   7.79888725        -5.73034432E-11
   7.92567968        -7.51863710E-11
   8.05247211        -9.93941804E-11
   8.17926502        -1.29646474E-10
   8.30605793        -1.64369129E-10
   8.43285084        -2.00367542E-10
   8.55964279        -2.32609210E-10
   8.68643570        -2.54151200E-10
   8.81322861        -2.56224375E-10
   8.94002151        -2.28463401E-10
   9.06681347        -1.59255872E-10
   9.19360638        -3.61838476E-11
   9.32039928         1.53448323E-10
   9.44719219         4.21967766E-10
   9.57398415         7.80486009E-10
   9.70077705         1.23772015E-09
   9.82756996         1.79832360E-09
   9.95436192         2.46058085E-09
   10.0811548         3.21338312E-09
   10.2079477         4.03252454E-09
   10.3347406         4.87653651E-09
   10.4615326         5.68248382E-09
   10.5883255         6.36235198E-09
   10.7151184         6.80082390E-09
   10.8419113         6.85532697E-09
   10.9687033         6.35920028E-09
   11.0954962         5.12866016E-09
   11.2222891         2.97391933E-09
   11.3490820        -2.85604346E-10
   11.4758739        -4.80263074E-09
   11.6026669        -1.06810916E-08
   11.7294598        -1.79547008E-08
   11.8562517        -2.65673403E-08
   11.9830446        -3.63579318E-08
   12.1098375        -4.70528114E-08
   12.2366304        -5.82687640E-08
   12.3634224        -6.95298397E-08
   12.4902153        -8.03009570E-08
   12.6170082        -9.00410626E-08
   12.7438011        -9.82781714E-08
   12.8705931        -1.04707929E-07
   12.9973860        -1.09316893E-07
   13.1241789        -1.12530280E-07
   13.2509708        -1.15383344E-07
   13.3777637        -1.19713746E-07
   13.5045567        -1.28370928E-07
   13.6313496        -1.45436886E-07
   13.7581415        -1.76451039E-07
   13.8849344        -2.28630256E-07
   14.0117273        -3.11073961E-07
   14.1385202        -4.34943246E-07
   14.2653122        -6.13602367E-07
   14.3921051        -8.62711715E-07
   14.5188980        -1.20026050E-06
   14.6456909        -1.64653181E-06
   14.7724829        -2.22399171E-06
   14.8992758        -2.95709924E-06
   15.0260687        -3.87203272E-06
   15.1528606        -4.99633779E-06
   15.2796535        -6.35849983E-06
   15.4064465        -7.98744713E-06
   15.5332394        -9.91199886E-06
   15.6600313        -1.21602734E-05
   15.7868242        -1.47590608E-05
   15.9136171        -1.77331840E-05
   16.0404091        -2.11048718E-05
   16.1672020        -2.48931283E-05
   16.2939949        -2.91131728E-05
   16.4207878        -3.37758720E-05
   16.5475807        -3.88872686E-05
   16.6743736        -4.44481702E-05
   16.8011646        -5.04537638E-05
   16.9279575        -5.68933647E-05
   17.0547504        -6.37502017E-05
   17.1815434        -7.10012901E-05
   17.3083363        -7.86174351E-05
   17.4351292        -8.65632610E-05
   17.5619221        -9.47974186E-05
   17.6887150        -1.03272818E-04
   17.8155060        -1.11937079E-04
   17.9422989        -1.20733028E-04
   18.0690918        -1.29599372E-04
   18.1958847        -1.38471441E-04
   18.3226776        -1.47282146E-04
   18.4494705        -1.55962989E-04
   18.5762634        -1.64445155E-04
   18.7030544        -1.72660744E-04
   18.8298473        -1.80544012E-04
   18.9566402        -1.88032573E-04
   19.0834332        -1.95068715E-04
   19.2102261        -2.01600502E-04
   19.3370190        -2.07582867E-04
   19.4638119        -2.12978528E-04
   19.5906048        -2.17758716E-04
   19.7173958        -2.21903756E-04
   19.8441887        -2.25403346E-04
   19.9709816        -2.28256598E-04
   20.0977745        -2.30471909E-04
   20.2245674        -2.32066537E-04
   20.3513603        -2.33065919E-04
   20.4781532        -2.33502884E-04
   20.6049442        -2.33416649E-04
   20.7317371        -2.32851715E-04
   20.8585300        -2.31856815E-04
   20.9853230        -2.30483653E-04
   21.1121159        -2.28785866E-04
   21.2389088        -2.26817938E-04
   21.3657017        -2.24634467E-04
   21.4924946        -2.22289280E-04
   21.6192856        -2.19835114E-04
   21.7460785        -2.17323075E-04
   21.8728714        -2.14802640E-04
   21.9996643        -2.12321407E-04
   22.1264572        -2.09925478E-04
   22.2532501        -2.07659352E-04
   22.3800430        -2.05566321E-04
   22.5068340        -2.03688483E-04
   22.6336269        -2.02066891E-04
   22.7604198        -2.00741430E-04
   22.8872128        -1.99750706E-04
   23.0140057        -1.99131522E-04
   23.1407986        -1.98918337E-04
   23.2675915        -1.99142407E-04
   23.3943844        -1.99830887E-04
   23.5211754        -2.01005605E-04
   23.6479683        -2.02681884E-04
   23.7747612        -2.04867436E-04
   23.9015541        -2.07561097E-04
   24.0283470        -2.10751867E-04
   24.1551399        -2.14418134E-04
   24.2819328        -2.18527101E-04
   24.4087238        -2.23034818E-04
   24.5355167        -2.27886369E-04
   24.6623096        -2.33016588E-04
   24.7891026        -2.38351306E-04
   24.9158955        -2.43808914E-04
   25.0426884        -2.49302480E-04
   25.1694813        -2.54742074E-04
   25.2962742        -2.60037428E-04
   25.4230652        -2.65100854E-04
   25.5498581        -2.69850076E-04
   25.6766510        -2.74211168E-04
   25.8034439        -2.78121239E-04
   25.9302368        -2.81531014E-04
   26.0570297        -2.84406764E-04
   26.1838226        -2.86732131E-04
   26.3106136        -2.88509298E-04
   26.4374065        -2.89759308E-04
   26.5641994        -2.90522235E-04
   26.6909924        -2.90856435E-04
   26.8177853        -2.90837139E-04
   26.9445782        -2.90554686E-04
   27.0713711        -2.90112279E-04
   27.1981640        -2.89623073E-04
   27.3249550        -2.89207121E-04
   27.4517479        -2.88988231E-04
   27.5785408        -2.89090502E-04
   27.7053337        -2.89635005E-04
   27.8321266        -2.90736760E-04
   27.9589195        -2.92501645E-04
   28.0857124        -2.95023987E-04
   28.2125034        -2.98384140E-04
   28.3392963        -3.02647211E-04
   28.4660892        -3.07861454E-04
   28.5928822        -3.14057717E-04
   28.7196751        -3.21249303E-04
   28.8464680        -3.29432019E-04
   28.9732609        -3.38585000E-04
   29.1000538        -3.48671892E-04
   29.2268448        -3.59641796E-04
   29.3536377        -3.71431350E-04
   29.4804306        -3.83966224E-04
   29.6072235        -3.97163269E-04
   29.7340164        -4.10932320E-04
   29.8608093        -4.25178558E-04
   29.9876022        -4.39804135E-04
   30.1143932        -4.54710476E-04
   30.2411861        -4.69799852E-04
   30.3679790        -4.84977150E-04
   30.4947720        -5.00151422E-04
   30.6215649        -5.15237276E-04
   30.7483578        -5.30155783E-04
   30.8751507        -5.44835522E-04
   31.0019417        -5.59213629E-04
   31.1287346        -5.73235506E-04
   31.2555275        -5.86855807E-04
   31.3823204        -6.00037980E-04
   31.5091133        -6.12754375E-04
   31.6359062        -6.24985492E-04
   31.7626991        -6.36719458E-04
   31.8894920        -6.47951092E-04
   32.0162849        -6.58680801E-04
   32.1430779        -6.68913126E-04
   32.2698708        -6.78655517E-04
   32.3966637        -6.87916297E-04
   32.5234528        -6.96703268E-04
   32.6502457        -7.05021783E-04
   32.7770386        -7.12872774E-04
   32.9038315        -7.20251002E-04
   33.0306244        -7.27143663E-04
   33.1574173        -7.33528228E-04
   33.2842102        -7.39371928E-04
   33.4110031        -7.44630059E-04
   33.5377960        -7.49246159E-04
   33.6645889        -7.53151369E-04
   33.7913818        -7.56264664E-04
   33.9181747        -7.58494192E-04
   34.0449677        -7.59738439E-04
   34.1717606        -7.59887858E-04
   34.2985535        -7.58827489E-04
   34.4253426        -7.56439986E-04
   34.5521355        -7.52608408E-04
   34.6789284        -7.47220009E-04
   34.8057213        -7.40169780E-04
   34.9325142        -7.31364242E-04
   35.0593071        -7.20725104E-04
   35.1861000        -7.08192878E-04
   35.3128929        -6.93730137E-04
   35.4396858        -6.77324017E-04
   35.5664787        -6.58988894E-04
   35.6932716        -6.38767844E-04
   35.8200645        -6.16733625E-04
   35.9468575        -5.92989265E-04
   36.0736504        -5.67667303E-04
   36.2004433        -5.40928973E-04
   36.3272324        -5.12961997E-04
   36.4540253        -4.83978394E-04
   36.5808182        -4.54211025E-04
   36.7076111        -4.23909922E-04
   36.8344040        -3.93338094E-04
   36.9611969        -3.62767110E-04
   37.0879898        -3.32472002E-04
   37.2147827        -3.02726432E-04
   37.3415756        -2.73797748E-04
   37.4683685        -2.45941803E-04
   37.5951614        -2.19398586E-04
   37.7219543        -1.94387481E-04
   37.8487473        -1.71103515E-04
   37.9755402        -1.49713858E-04
   38.1023293        -1.30354980E-04
   38.2291222        -1.13130445E-04
   38.3559151        -9.81095509E-05
   38.4827080        -8.53265446E-05
   38.6095009        -7.47806116E-05
   38.7362938        -6.64366671E-05
   38.8630867        -6.02266919E-05
   38.9898796        -5.60517692E-05
   39.1166725        -5.37845990E-05
   39.2434654        -5.32725462E-05
   39.3702583        -5.43411006E-05
   39.4970512        -5.67975731E-05
   39.6238441        -6.04350971E-05
   39.7506371        -6.50367583E-05
   39.8774300        -7.03797268E-05
   40.0042191        -7.62395503E-05
   40.1310120        -8.23942173E-05
   40.2578049        -8.86281196E-05
   40.3845978        -9.47358785E-05
   40.5113907        -1.00525809E-04
   40.6381836        -1.05823128E-04
   40.7649765        -1.10472734E-04
   40.8917694        -1.14341579E-04
   41.0185623        -1.17320531E-04
   41.1453552        -1.19325712E-04
   41.2721481        -1.20299301E-04
   41.3989410        -1.20209690E-04
   41.5257339        -1.19051168E-04
   41.6525269        -1.16842974E-04
   41.7793198        -1.13627837E-04
   41.9061089        -1.09469955E-04
   42.0329018        -1.04452673E-04
   42.1596947        -9.86757659E-05
   42.2864876        -9.22524196E-05
   42.4132805        -8.53061210E-05
   42.5400734        -7.79674738E-05
   42.6668663        -7.03710684E-05
   42.7936592        -6.26525216E-05
   42.9204521        -5.49457545E-05
   43.0472450        -4.73805630E-05
   43.1740379        -4.00806130E-05
   43.3008308        -3.31617994E-05
   43.4276237        -2.67309970E-05
   43.5544167        -2.08852016E-05
   43.6812096        -1.57110426E-05
   43.8079987        -1.12845755E-05
   43.9347916        -7.67127767E-06
   44.0615845        -4.92624258E-06
   44.1883774        -3.09440134E-06
   44.3151703        -2.21078813E-06
   44.4419632        -2.30072988E-06
   44.5687561        -3.37996471E-06
   44.6955490        -5.45459216E-06
   44.8223419        -8.52091307E-06
   44.9491348        -1.25651104E-05
   45.0759277        -1.75628520E-05
   45.2027206        -2.34787931E-05
   45.3295135        -3.02661119E-05
   45.4563065        -3.78660770E-05
   45.5830994        -4.62077587E-05
   45.7098885        -5.52079437E-05
   45.8366814        -6.47712804E-05
   45.9634743        -7.47908343E-05
   46.0902672        -8.51489458E-05
   46.2170601        -9.57185403E-05
   46.3438530        -1.06364787E-04
   46.4706459        -1.16947231E-04
   46.5974388        -1.27322230E-04
   46.7242317        -1.37345676E-04
   46.8510246        -1.46875958E-04
   46.9778175        -1.55776987E-04
   47.1046104        -1.63921315E-04
   47.2314034        -1.71192994E-04
   47.3581963        -1.77490409E-04
   47.4849892        -1.82728647E-04
   47.6117783        -1.86841600E-04
   47.7385712        -1.89783503E-04
   47.8653641        -1.91530024E-04
   47.9921570        -1.92078762E-04
   48.1189499        -1.91449260E-04
   48.2457428        -1.89682454E-04
   48.3725357        -1.86839607E-04
   48.4993286        -1.83000797E-04
   48.6261215        -1.78262897E-04
   48.7529144        -1.72737433E-04
   48.8797073        -1.66547950E-04
   49.0065002        -1.59827323E-04
   49.1332932        -1.52714973E-04
   49.2600861        -1.45354003E-04
   49.3868790        -1.37888448E-04
   49.5136681        -1.30460641E-04
   49.6404610        -1.23208752E-04
   49.7672539        -1.16264557E-04
   49.8940468        -1.09751556E-04
   50.0208397        -1.03783255E-04
   50.1476326        -9.84618528E-05
   50.2744255        -9.38771336E-05
   50.4012184        -9.01057210E-05
   50.5280113        -8.72104501E-05
   50.6548042        -8.52400553E-05
   50.7815971        -8.42289446E-05
   50.9083900        -8.41971632E-05
   51.0351830        -8.51504592E-05
   51.1619759        -8.70803487E-05
   51.2887688        -8.99643492E-05
   51.4155579        -9.37662044E-05
   51.5423508        -9.84362196E-05
   51.6691437        -1.03911661E-04
   51.7959366        -1.10117253E-04
   51.9227295        -1.16965828E-04
   52.0495224        -1.24359169E-04
   52.1763153        -1.32188987E-04
   52.3031082        -1.40338278E-04
   52.4299011        -1.48682870E-04
   52.5566940        -1.57093236E-04
   52.6834869        -1.65436664E-04
   52.8102798        -1.73579625E-04
   52.9370728        -1.81390453E-04
   53.0638657        -1.88742037E-04
   53.1906586        -1.95514745E-04
   53.3174477        -2.01599221E-04
   53.4442406        -2.06899102E-04
   53.5710335        -2.11333507E-04
   53.6978264        -2.14839092E-04
   53.8246193        -2.17371824E-04
   53.9514122        -2.18908011E-04
   54.0782051        -2.19444919E-04
   54.2049980        -2.19000605E-04
   54.3317909        -2.17613182E-04
   54.4585838        -2.15339416E-04
   54.5853767        -2.12252693E-04
   54.7121696        -2.08440586E-04
   54.8389626        -2.04001859E-04
   54.9657555        -1.99043323E-04
   55.0925484        -1.93676431E-04
   55.2193375        -1.88013844E-04
   55.3461304        -1.82166288E-04
   55.4729233        -1.76239351E-04
   55.5997162        -1.70330895E-04
   55.7265091        -1.64528901E-04
   55.8533020        -1.58909650E-04
   55.9800949        -1.53536806E-04
   56.1068878        -1.48460851E-04
   56.2336807        -1.43719211E-04
   56.3604736        -1.39337062E-04
   56.4872665        -1.35328373E-04
   56.6140594        -1.31697670E-04
   56.7408524        -1.28441912E-04
   56.8676453        -1.25552731E-04
   56.9944382        -1.23018515E-04
   57.1212273        -1.20826735E-04
   57.2480202        -1.18965843E-04
   57.3748131        -1.17427029E-04
   57.5016060        -1.16205527E-04
   57.6283989        -1.15301489E-04
   57.7551918        -1.14720329E-04
   57.8819847        -1.14472554E-04
   58.0087776        -1.14573035E-04
   58.1355705        -1.15039875E-04
   58.2623634        -1.15892806E-04
   58.3891563        -1.17151278E-04
   58.5159492        -1.18832424E-04
   58.6427422        -1.20948825E-04
   58.7695351        -1.23506397E-04
   58.8963280        -1.26502520E-04
   59.0231171        -1.29924258E-04
   59.1499100        -1.33747249E-04
   59.2767029        -1.37934840E-04
   59.4034958        -1.42437886E-04
   59.5302887        -1.47195198E-04
   59.6570816        -1.52134467E-04
   59.7838745        -1.57173796E-04
   59.9106674        -1.62223863E-04
   60.0374603        -1.67190432E-04
   60.1642532        -1.71977270E-04
   60.2910461        -1.76489382E-04
   60.4178391        -1.80636154E-04
   60.5446320        -1.84334742E-04
   60.6714249        -1.87513011E-04
   60.7982178        -1.90112420E-04
   60.9250069        -1.92090301E-04
   61.0517998        -1.93421656E-04
   61.1785927        -1.94100343E-04
   61.3053856        -1.94139589E-04
   61.4321785        -1.93571759E-04
   61.5589714        -1.92447435E-04
   61.6857643        -1.90833845E-04
   61.8125572        -1.88812613E-04
   61.9393501        -1.86477002E-04
   62.0661430        -1.83928685E-04
   62.1929359        -1.81274299E-04
   62.3197289        -1.78621718E-04
   62.4465218        -1.76076413E-04
   62.5733147        -1.73737761E-04
   62.7001076        -1.71695821E-04
   62.8268967        -1.70028390E-04
   62.9536896        -1.68798535E-04
   63.0804825        -1.68052837E-04
   63.2072754        -1.67820181E-04
   63.3340683        -1.68111379E-04
   63.4608612        -1.68919403E-04
   63.5876541        -1.70220403E-04
   63.7144470        -1.71975262E-04
   63.8412399        -1.74131783E-04
   63.9680328        -1.76627247E-04
   64.0948257        -1.79391311E-04
   64.2216187        -1.82349075E-04
   64.3484116        -1.85424113E-04
   64.4752045        -1.88541526E-04
   64.6019974        -1.91630563E-04
   64.7287903        -1.94627035E-04
   64.8555832        -1.97475078E-04
   64.9823761        -2.00128634E-04
   65.1091690        -2.02552139E-04
   65.2359619        -2.04720694E-04
   65.3627548        -2.06619632E-04
   65.4895477        -2.08243640E-04
   65.6163330        -2.09595222E-04
   65.7431259        -2.10682920E-04
   65.8699188        -2.11519262E-04
   65.9967117        -2.12118422E-04
   66.1235046        -2.12494080E-04
   66.2502975        -2.12657120E-04
   66.3770905        -2.12613784E-04
   66.5038834        -2.12364059E-04
   66.6306763        -2.11900580E-04
   66.7574692        -2.11208069E-04
   66.8842621        -2.10263286E-04
   67.0110550        -2.09035701E-04
   67.1378479        -2.07488571E-04
   67.2646408        -2.05580756E-04
   67.3914337        -2.03268879E-04
   67.5182266        -2.00509749E-04
   67.6450195        -1.97263274E-04
   67.7718124        -1.93495172E-04
   67.8986053        -1.89179831E-04
   68.0253983        -1.84302888E-04
   68.1521912        -1.78863556E-04
   68.2789841        -1.72876462E-04
   68.4057770        -1.66372993E-04
   68.5325699        -1.59402000E-04
   68.6593628        -1.52029956E-04
   68.7861557        -1.44340258E-04
   68.9129486        -1.36432136E-04
   69.0397415        -1.28418731E-04
   69.1665344        -1.20424680E-04
   69.2933273        -1.12583242E-04
   69.4201126        -1.05033039E-04
   69.5469055        -9.79144752E-05
   69.6736984        -9.13661206E-05
   69.8004913        -8.55209801E-05
   69.9272842        -8.05029194E-05
   70.0540771        -7.64233919E-05
   70.1808701        -7.33783818E-05
   70.3076630        -7.14459311E-05
   70.4344559        -7.06841020E-05
   70.5612488        -7.11295070E-05
   70.6880417        -7.27965235E-05
   70.8148346        -7.56770605E-05
   70.9416275        -7.97409593E-05
   71.0684204        -8.49369535E-05
   71.1952133        -9.11941970E-05
   71.3220062        -9.84241924E-05
   71.4487991        -1.06523148E-04
   71.5755920        -1.15374634E-04
   71.7023849        -1.24852435E-04
   71.8291779        -1.34823495E-04
   71.9559708        -1.45150902E-04
   72.0827637        -1.55696791E-04
   72.2095566        -1.66325059E-04
   72.3363495        -1.76903777E-04
   72.4631424        -1.87307392E-04
   72.5899353        -1.97418456E-04
   72.7167282        -2.07129051E-04
   72.8435211        -2.16341796E-04
   72.9703140        -2.24970325E-04
   73.0971069        -2.32939623E-04
   73.2238922        -2.40185909E-04
   73.3506851        -2.46656098E-04
   73.4774780        -2.52307451E-04
   73.6042709        -2.57106585E-04
   73.7310638        -2.61028705E-04
   73.8578568        -2.64056755E-04
   73.9846497        -2.66180607E-04
   74.1114426        -2.67396215E-04
   74.2382355        -2.67705036E-04
   74.3650284        -2.67113704E-04
   74.4918213        -2.65633600E-04
   74.6186142        -2.63280992E-04
   74.7454071        -2.60077097E-04
   74.8722000        -2.56048457E-04
   74.9989929        -2.51227611E-04
   75.1257858        -2.45653529E-04
   75.2525787        -2.39372443E-04
   75.3793716        -2.32438411E-04
   75.5061646        -2.24914038E-04
   75.6329575        -2.16870729E-04
   75.7597504        -2.08388970E-04
   75.8865433        -1.99558184E-04
   76.0133362        -1.90476261E-04
   76.1401291        -1.81248673E-04
   76.2669220        -1.71987354E-04
   76.3937149        -1.62808923E-04
   76.5205078        -1.53832822E-04
   76.6473007        -1.45179016E-04
   76.7740936        -1.36965478E-04
   76.9008865        -1.29305554E-04
   77.0276718        -1.22305311E-04
   77.1544647        -1.16060808E-04
   77.2812576        -1.10655703E-04
   77.4080505        -1.06158950E-04
   77.5348434        -1.02622937E-04
   77.6616364        -1.00082041E-04
   77.7884293        -9.85516672E-05
   77.9152222        -9.80278564E-05
   78.0420151        -9.84874059E-05
   78.1688080        -9.98885953E-05
   78.2956009        -1.02172475E-04
   78.4223938        -1.05264640E-04
   78.5491867        -1.09077489E-04
   78.6759796        -1.13512862E-04
   78.8027725        -1.18464923E-04
   78.9295654        -1.23823280E-04
   79.0563583        -1.29476190E-04
   79.1831512        -1.35313676E-04
   79.3099442        -1.41230572E-04
   79.4367371        -1.47129263E-04
   79.5635300        -1.52922017E-04
   79.6903229        -1.58533032E-04
   79.8171158        -1.63899764E-04
   79.9439087        -1.68973929E-04
   80.0707016        -1.73721593E-04
   80.1974945        -1.78123038E-04
   80.3242874        -1.82171731E-04
   80.4510803        -1.85872981E-04
   80.5778732        -1.89242055E-04
   80.7046585        -1.92301915E-04
   80.8314514        -1.95080735E-04
   80.9582443        -1.97609217E-04
   81.0850372        -1.99917995E-04
   81.2118301        -2.02035066E-04
   81.3386230        -2.03983393E-04
   81.4654160        -2.05779012E-04
   81.5922089        -2.07429533E-04
   81.7190018        -2.08933066E-04
   81.8457947        -2.10277809E-04
   81.9725876        -2.11442195E-04
   82.0993805        -2.12395695E-04
   82.2261734        -2.13100153E-04
   82.3529663        -2.13511565E-04
   82.4797592        -2.13582447E-04
   82.6065521        -2.13264371E-04
   82.7333450        -2.12510728E-04
   82.8601379        -2.11279636E-04
   82.9869308        -2.09536680E-04
   83.1137238        -2.07257515E-04
   83.2405167        -2.04430107E-04
   83.3673096        -2.01056493E-04
   83.4941025        -1.97154091E-04
   83.6208954        -1.92756328E-04
   83.7476883        -1.87912694E-04
   83.8744812        -1.82688062E-04
   84.0012741        -1.77161419E-04
   84.1280670        -1.71424064E-04
   84.2548599        -1.65577134E-04
   84.3816528        -1.59728806E-04
   84.5084381        -1.53991219E-04
   84.6352310        -1.48477106E-04
   84.7620239        -1.43296536E-04
   84.8888168        -1.38553572E-04
   85.0156097        -1.34343369E-04
   85.1424026        -1.30749453E-04
   85.2691956        -1.27841529E-04
   85.3959885        -1.25673789E-04
   85.5227814        -1.24283775E-04
   85.6495743        -1.23691876E-04
   85.7763672        -1.23901322E-04
   85.9031601        -1.24898754E-04
   86.0299530        -1.26655315E-04
   86.1567459        -1.29128050E-04
   86.2835388        -1.32261717E-04
   86.4103317        -1.35990835E-04
   86.5371246        -1.40241769E-04
   86.6639175        -1.44935009E-04
   86.7907104        -1.49987318E-04
   86.9175034        -1.55313872E-04
   87.0442963        -1.60830241E-04
   87.1710892        -1.66454076E-04
   87.2978821        -1.72106709E-04
   87.4246750        -1.77714392E-04
   87.5514679        -1.83209180E-04
   87.6782608        -1.88529739E-04
   87.8050537        -1.93621585E-04
   87.9318466        -1.98437367E-04
   88.0586395        -2.02936542E-04
   88.1854324        -2.07085148E-04
   88.3122177        -2.10855229E-04
   88.4390106        -2.14224245E-04
   88.5658035        -2.17174282E-04
   88.6925964        -2.19691326E-04
   88.8193893        -2.21764582E-04
   88.9461823        -2.23385709E-04
   89.0729752        -2.24548392E-04
   89.1997681        -2.25247757E-04
   89.3265610        -2.25480268E-04
   89.4533539        -2.25243537E-04
   89.5801468        -2.24536489E-04
   89.7069397        -2.23359544E-04
   89.8337326        -2.21715134E-04
   89.9605255        -2.19608293E-04
   90.0873184        -2.17047316E-04
   90.2141113        -2.14044543E-04
   90.3409042        -2.10617116E-04
   90.4676971        -2.06787779E-04
   90.5944901        -2.02585477E-04
   90.7212830        -1.98045891E-04
   90.8480759        -1.93211788E-04
   90.9748688        -1.88133097E-04
   91.1016617        -1.82866643E-04
   91.2284546        -1.77475798E-04
   91.3552475        -1.72029584E-04
   91.4820404        -1.66601661E-04
   91.6088333        -1.61269025E-04
   91.7356262        -1.56110415E-04
   91.8624191        -1.51204658E-04
   91.9892120        -1.46628794E-04
   92.1159973        -1.42456294E-04
   92.2427902        -1.38755146E-04
   92.3695831        -1.35586190E-04
   92.4963760        -1.33001420E-04
   92.6231689        -1.31042732E-04
   92.7499619        -1.29740787E-04
   92.8767548        -1.29114138E-04
   93.0035477        -1.29168882E-04
   93.1303406        -1.29898472E-04
   93.2571335        -1.31284032E-04
   93.3839264        -1.33294947E-04
   93.5107193        -1.35889684E-04
   93.6375122        -1.39017036E-04
   93.7643051        -1.42617471E-04
   93.8910980        -1.46624574E-04
   94.0178909        -1.50966691E-04
   94.1446838        -1.55568516E-04
   94.2714767        -1.60352633E-04
   94.3982697        -1.65240985E-04
   94.5250626        -1.70156229E-04
   94.6518555        -1.75022811E-04
   94.7786484        -1.79768118E-04
   94.9054413        -1.84323202E-04
   95.0322342        -1.88623482E-04
   95.1590271        -1.92609325E-04
   95.2858200        -1.96226465E-04
   95.4126129        -1.99426402E-04
   95.5394058        -2.02166630E-04
   95.6661987        -2.04411001E-04
   95.7929916        -2.06129873E-04
   95.9197769        -2.07300443E-04
   96.0465698        -2.07906909E-04
   96.1733627        -2.07940655E-04
   96.3001556        -2.07400473E-04
   96.4269485        -2.06292680E-04
   96.5537415        -2.04631157E-04
   96.6805344        -2.02437412E-04
   96.8073273        -1.99740403E-04
   96.9341202        -1.96576410E-04
   97.0609131        -1.92988664E-04
   97.1877060        -1.89026861E-04
   97.3144989        -1.84746663E-04
   97.4412918        -1.80208997E-04
   97.5680847        -1.75479203E-04
   97.6948776        -1.70626226E-04
   97.8216705        -1.65721678E-04
   97.9484634        -1.60838754E-04
   98.0752563        -1.56051319E-04