  -4.50000000         0.00000000    
  -4.37320757         0.00000000    
  -4.24641466         0.00000000    
  -4.11962223         0.00000000    
  -3.99282932         0.00000000    
  -3.86603665         0.00000000    
  -3.73924398         0.00000000    
  -3.61245155         0.00000000    
  -3.48565888         0.00000000    
  -3.35886621         0.00000000    
  -3.23207355         0.00000000    
  -3.10528088         0.00000000    
  -2.97848821         0.00000000    
  -2.85169554         0.00000000    
  -2.72490287         0.00000000    
  -2.59811020         0.00000000    
  -2.47131753         0.00000000    
  -2.34452486         0.00000000    
  -2.21773219         0.00000000    
  -2.09093952         0.00000000    
  -1.96414697         0.00000000    
  -1.83735430         0.00000000    
  -1.71056163         0.00000000    
  -1.58376896         0.00000000    
  -1.45697629         0.00000000    
  -1.33018374         0.00000000    
  -1.20339108         0.00000000    
  -1.07659841         0.00000000    
 -0.949805737         0.00000000    
 -0.823013067         0.00000000    
 -0.696220458         0.00000000    
 -0.569427788         0.00000000    
 -0.442635119         0.00000000    
 -0.315842479         0.00000000    
 -0.189049825         0.00000000    
  -6.22571707E-02     0.00000000    
   6.45354837E-02     0.00000000    
  0.191328138         0.00000000    
  0.318120778         0.00000000    
  0.444913447         0.00000000    
  0.571706116         0.00000000    
  0.698498726         0.00000000    
  0.825291395         0.00000000    
  0.952084064         0.00000000    
   1.07887673         0.00000000    
   1.20566940         0.00000000    
   1.33246195         0.00000000    
   1.45925462         0.00000000    
   1.58604729         0.00000000    
   1.71283996         0.00000000    
   1.83963263         0.00000000    
   1.96642530         0.00000000    
   2.09321785         0.00000000    
   2.22001052         0.00000000    
   2.34680319         0.00000000    
   2.47359586         0.00000000    
   2.60038853         0.00000000    
   2.72718120         0.00000000    
   2.85397387         0.00000000    
   2.98076653         0.00000000    
   3.10755920         0.00000000    
   3.23435187         0.00000000    
   3.36114454         0.00000000    
   3.48793697         0.00000000    
   3.61472964         0.00000000    
   3.74152231         0.00000000    
   3.86831498         0.00000000    
   3.99510765         0.00000000    
   4.12190056         0.00000000    
   4.24869299         0.00000000    
   4.37548542         0.00000000    
   4.50227833         0.00000000    
   4.62907076         0.00000000    
   4.75586367         0.00000000    
   4.88265610         0.00000000    
   5.00944901         0.00000000    
   5.13624144         0.00000000    
   5.26303434         0.00000000    
   5.38982677         0.00000000    
   5.51661968         0.00000000    
   5.64341211         0.00000000    
   5.77020502         0.00000000    
   5.89699745         0.00000000    
   6.02379036         0.00000000    
   6.15058279         0.00000000    
   6.27737522         0.00000000    
   6.40416813         0.00000000    
   6.53096056         0.00000000    
   6.65775347         0.00000000    
   6.78454590         0.00000000    
   6.91133881         0.00000000    
   7.03813124         0.00000000    
   7.16492414         0.00000000    
   7.29171658         0.00000000    
   7.41850948         0.00000000    
   7.54530191         0.00000000    
   7.67209482         0.00000000    
   7.79888725         0.00000000    
   7.92567968         0.00000000    
   8.05247211         0.00000000    
   8.17926502         0.00000000    
   8.30605793         0.00000000    
   8.43285084         0.00000000    
   8.55964279         0.00000000    
   8.68643570         0.00000000    
   8.81322861         0.00000000    
   8.94002151         0.00000000    
   9.06681347         0.00000000    
   9.19360638         0.00000000    
   9.32039928         0.00000000    
   9.44719219         0.00000000    
   9.57398415         0.00000000    
   9.70077705         0.00000000    
   9.82756996         0.00000000    
   9.95436192         0.00000000    
   10.0811548         0.00000000    
   10.2079477         0.00000000    
   10.3347406         0.00000000    
   10.4615326         0.00000000    
   10.5883255         0.00000000    
   10.7151184         0.00000000    
   10.8419113         0.00000000    
   10.9687033         0.00000000    
   11.0954962         0.00000000    
   11.2222891         0.00000000    
   11.3490820         0.00000000    
   11.4758739         0.00000000    
   11.6026669         0.00000000    
   11.7294598         0.00000000    
   11.8562517         0.00000000    
   11.9830446         0.00000000    
   12.1098375         0.00000000    
   12.2366304         0.00000000    
   12.3634224         0.00000000    
   12.4902153         0.00000000    
   12.6170082         0.00000000    
   12.7438011         0.00000000    
   12.8705931         0.00000000    
   12.9973860         0.00000000    
   13.1241789         0.00000000    
   13.2509708         0.00000000    
   13.3777637         0.00000000    
   13.5045567         0.00000000    
   13.6313496         0.00000000    
   13.7581415         0.00000000    
   13.8849344         0.00000000    
   14.0117273         0.00000000    
   14.1385202         0.00000000    
   14.2653122         0.00000000    
   14.3921051         0.00000000    
   14.5188980         0.00000000    
   14.6456909         0.00000000    
   14.7724829         0.00000000    
   14.8992758         0.00000000    
   15.0260687         0.00000000    
   15.1528606         0.00000000    
   15.2796535         0.00000000    
   15.4064465         0.00000000    
   15.5332394         0.00000000    
   15.6600313         0.00000000    
   15.7868242         0.00000000    
   15.9136171         0.00000000    
   16.0404091         0.00000000    
   16.1672020         0.00000000    
   16.2939949         0.00000000    
   16.4207878         0.00000000    
   16.5475807         0.00000000    
   16.6743736         0.00000000    
   16.8011646         0.00000000    
   16.9279575         0.00000000    
   17.0547504         0.00000000    
   17.1815434         0.00000000    
   17.3083363         0.00000000    
   17.4351292         0.00000000    
   17.5619221         0.00000000    
   17.6887150         0.00000000    
   17.8155060         0.00000000    
   17.9422989         0.00000000    
   18.0690918         0.00000000    
   18.1958847         0.00000000    
   18.3226776         0.00000000    
   18.4494705         0.00000000    
   18.5762634         0.00000000    
   18.7030544         0.00000000    
   18.8298473         0.00000000    
   18.9566402         0.00000000    
   19.0834332         0.00000000    
   19.2102261        -6.15679803E-35
   19.3370190        -1.23135961E-34
   19.4638119        -1.84703946E-34
   19.5906048        -2.07715178E-34
   19.7173958        -6.12166463E-34
   19.8441887        -1.29808491E-33
   19.9709816        -1.80005232E-33
   20.0977745        -1.47341945E-33
   20.2245674        -8.22594531E-35
   20.3513603         1.75536829E-33
   20.4781532         3.36143373E-33
   20.6049442         1.92236526E-33
   20.7317371        -2.14184052E-33
   20.8585300        -6.23720021E-33
   20.9853230        -1.05599822E-32
   21.1121159        -1.41084301E-32
   21.2389088        -1.62689579E-32
   21.3657017        -1.00640684E-32
   21.4924946         4.46456391E-33
   21.6192856         2.85774814E-32
   21.7460785         5.53923383E-32
   21.8728714         6.01896131E-32
   21.9996643         4.59883248E-32
   22.1264572         2.34903224E-32
   22.2532501         2.06248290E-33
   22.3800430        -3.19569825E-34
   22.5068340        -4.48766786E-31
   22.6336269        -2.27793831E-31
   22.7604198         3.41439849E-31
   22.8872128         1.26659958E-30
   23.0140057         2.48727138E-30
   23.1407986         3.94150290E-30
   23.2675915         6.59506197E-30
   23.3943844         9.84569693E-30
   23.5211754         1.34539116E-29
   23.6479683         1.50408237E-29
   23.7747612         1.65532821E-29
   23.9015541         1.78426531E-29
   24.0283470         2.40632819E-29
   24.1551399         3.27935886E-29
   24.2819328         4.35102693E-29
   24.4087238         6.46852882E-29
   24.5355167         1.01414307E-28
   24.6623096         1.52056069E-28
   24.7891026         2.07816628E-28
   24.9158955         2.54854024E-28
   25.0426884         2.90317256E-28
   25.1694813         3.09720037E-28
   25.2962742         3.11811886E-28
   25.4230652         2.74801483E-28
   25.5498581         2.06280723E-28
   25.6766510         1.20644994E-28
   25.8034439         9.31439079E-30
   25.9302368        -1.36359836E-28
   26.0570297        -3.32488453E-28
   26.1838226        -5.94632748E-28
   26.3106136        -9.33096399E-28
   26.4374065        -1.35895504E-27
   26.5641994        -1.84679271E-27
   26.6909924        -2.36484033E-27
   26.8177853        -2.84633186E-27
   26.9445782        -3.23980513E-27
   27.0713711        -3.50212141E-27
   27.1981640        -3.60114772E-27
   27.3249550        -3.49278951E-27
   27.4517479        -3.12860675E-27
   27.5785408        -2.45696160E-27
   27.7053337        -1.38744821E-27
   27.8321266         1.66005676E-28
   27.9589195         2.28962544E-27
   28.0857124         5.02490106E-27
   28.2125034         8.34742874E-27
   28.3392963         1.21607223E-26
   28.4660892         1.62993377E-26
   28.5928822         2.05136884E-26
   28.7196751         2.44969615E-26
   28.8464680         2.78921772E-26
   28.9732609         3.02853069E-26
   29.1000538         3.12071279E-26
   29.2268448         3.01280000E-26
   29.3536377         2.64685852E-26
   29.4804306         1.96384858E-26
   29.6072235         9.08939633E-27
   29.7340164        -5.60365803E-27
   29.8608093        -2.46600554E-26
   29.9876022        -4.80064817E-26
   30.1143932        -7.51868629E-26
   30.2411861        -1.05312117E-25
   30.3679790        -1.37005861E-25
   30.4947720        -1.68379390E-25
   30.6215649        -1.97015681E-25
   30.7483578        -2.19976748E-25
   30.8751507        -2.33849236E-25
   31.0019417        -2.34838517E-25
   31.1287346        -2.18933011E-25
   31.2555275        -1.82147786E-25
   31.3823204        -1.20846637E-25
   31.5091133        -3.21443162E-26
   31.6359062         8.56404840E-26
   31.7626991         2.32498090E-25
   31.8894920         4.06244458E-25
   32.0162849         6.02070476E-25
   32.1430779         8.12160849E-25
   32.2698708         1.02542185E-24
   32.3966637         1.22736324E-24
   32.5234528         1.40018186E-24
   32.6502457         1.52311025E-24
   32.7770386         1.57308528E-24
   32.9038315         1.52578469E-24
   33.0306244         1.35705838E-24
   33.1574173         1.04475437E-24
   33.2842102         5.70901152E-25
   33.4110031        -7.58260066E-26
   33.5377960        -8.97463682E-25
   33.6645889        -1.88409350E-24
   33.7913818        -3.01133096E-24
   33.9181747        -4.23819032E-24
   34.0449677        -5.50556833E-24
   34.1717606        -6.73561626E-24
   34.2985535        -7.83228833E-24
   34.4253426        -8.68332567E-24
   34.5521355        -9.16393050E-24
   34.6789284        -9.14231256E-24
   34.8057213        -8.48718330E-24
   34.9325142        -7.07716069E-24
   35.0593071        -4.81189967E-24
   35.1861000        -1.62456092E-24
   35.3128929         2.50491184E-24
   35.4396858         7.53646707E-24
   35.5664787         1.33574630E-23
   35.6932716         1.97721517E-23
   35.8200645         2.64943195E-23
   35.9468575         3.31444201E-23
   36.0736504         3.92524659E-23
   36.2004433         4.42679110E-23
   36.3272324         4.75775643E-23
   36.4540253         4.85322627E-23
   36.5808182         4.64825087E-23
   36.7076111         4.08228040E-23
   36.8344040         3.10436393E-23
   36.9611969         1.67894876E-23
   37.0879898        -2.07991204E-24
   37.2147827        -2.54283428E-23
   37.3415756        -5.27861352E-23
   37.4683685        -8.33024179E-23
   37.5951614        -1.15711948E-22
   37.7219543        -1.48322019E-22
   37.8487473        -1.79025482E-22
   37.9755402        -2.05344305E-22
   38.1023293        -2.24508375E-22
   38.2291222        -2.33572121E-22
   38.3559151        -2.29569302E-22
   38.4827080        -2.09705154E-22
   38.6095009        -1.71580402E-22
   38.7362938        -1.13440256E-22
   38.8630867        -3.44369024E-23
   38.9898796         6.51090008E-23
   39.1166725         1.83465015E-22
   39.2434654         3.17282153E-22
   39.3702583         4.61450762E-22
   39.4970512         6.09039746E-22
   39.6238441         7.51341115E-22
   39.7506371         8.78040305E-22
   39.8774300         9.77528363E-22
   40.0042191         1.03736587E-21
   40.1310120         1.04490158E-21
   40.2578049         9.88038262E-22
   40.3845978         8.56128198E-22
   40.5113907         6.40967737E-22
   40.6381836         3.37847694E-22
   40.7649765        -5.33952747E-23
   40.8917694        -5.27394889E-22
   41.0185623        -1.07241503E-21
   41.1453552        -1.66973636E-21
   41.2721481        -2.29335663E-21
   41.3989410        -2.91008784E-21
   41.5257339        -3.48012776E-21
   41.6525269        -3.95816101E-21
   41.7793198        -4.29503799E-21
   41.9061089        -4.44003573E-21
   42.0329018        -4.34367807E-21
   42.1596947        -3.96105493E-21
   42.2864876        -3.25553268E-21
   42.4132805        -2.20270059E-21
   42.5400734        -7.94361727E-22
   42.6668663         9.57674211E-22
   42.7936592         3.01826977E-21
   42.9204521         5.32640055E-21
   43.0472450         7.79367150E-21
   43.1740379         1.03042018E-20
   43.3008308         1.27161619E-20
   43.4276237         1.48651755E-20
   43.5544167         1.65697460E-20
   43.6812096         1.76387784E-20
   43.8079987         1.78811132E-20
   43.9347916         1.71169195E-20
   44.0615845         1.51905984E-20
   44.1883774         1.19846822E-20
   44.3151703         7.43414762E-21
   44.4419632         1.54030724E-21
   44.5687561        -5.61657373E-21
   44.6955490        -1.38669479E-20
   44.8223419        -2.29449578E-20
   44.9491348        -3.24857317E-20
   45.0759277        -4.20279871E-20
   45.2027206        -5.10226748E-20
   45.3295135        -5.88483753E-20
   45.4563065        -6.48336151E-20
   45.5830994        -6.82862605E-20
   45.7098885        -6.85293094E-20
   45.8366814        -6.49424087E-20
   45.9634743        -5.70075301E-20
   46.0902672        -4.43570304E-20
   46.2170601        -2.68217595E-20
   46.3438530        -4.47641471E-21
   46.4706459         2.23208307E-20
   46.5974388         5.28977349E-20
   46.7242317         8.62496378E-20
   46.8510246         1.21036557E-19
   46.9778175         1.55598489E-19
   47.1046104         1.87991283E-19
   47.2314034         2.16044389E-19
   47.3581963         2.37441135E-19
   47.4849892         2.49820746E-19
   47.6117783         2.50900217E-19
   47.7385712         2.38612474E-19
   47.8653641         2.11256164E-19
   47.9921570         1.67650407E-19
   48.1189499         1.07287368E-19
   48.2457428         3.04734598E-20
   48.3725357        -6.15501216E-20
   48.4993286        -1.66517209E-19
   48.6261215        -2.81086958E-19
   48.7529144        -4.00843608E-19
   48.8797073        -5.20353681E-19
   49.0065002        -6.33286634E-19
   49.1332932        -7.32602694E-19
   49.2600861        -8.10808640E-19
   49.3868790        -8.60278384E-19
   49.5136681        -8.73631043E-19
   49.6404610        -8.44156789E-19
   49.7672539        -7.66274012E-19
   49.8940468        -6.35999579E-19
   50.0208397        -4.51408849E-19
   50.1476326        -2.13061512E-19
   50.2744255         7.56370656E-20
   50.4012184         4.08164027E-19
   50.5280113         7.74727022E-19
   50.6548042         1.16225628E-18
   50.7815971         1.55456312E-18
   50.9083900         1.93268145E-18
   51.0351830         2.27540264E-18
   51.1619759         2.56000385E-18
   51.2887688         2.76315982E-18
   51.4155579         2.86202403E-18
   51.5423508         2.83544196E-18
   51.6691437         2.66526072E-18
   51.7959366         2.33767755E-18
   51.9227295         1.84457161E-18
   52.0495224         1.18474318E-18
   52.1763153         3.64991584E-19
   52.3031082        -5.99049111E-19
   52.4299011        -1.68238869E-18
   52.5566940        -2.85054483E-18
   52.6834869        -4.05985290E-18
   52.8102798        -5.25826804E-18
   52.9370728        -6.38668757E-18
   53.0638657        -7.38079943E-18
   53.1906586        -8.17344442E-18
   53.3174477        -8.69743356E-18
   53.4442406        -8.88876954E-18
   53.5710335        -8.69014279E-18
   53.6978264        -8.05459429E-18
   53.8246193        -6.94918155E-18
   53.9514122        -5.35846650E-18
   54.0782051        -3.28765437E-18
   54.2049980        -7.65169260E-19
   54.3317909         2.15552101E-18
   54.4585838         5.39501009E-18
   54.5853767         8.84816324E-18
   54.7121696         1.23855565E-17
   54.8389626         1.58562351E-17
   54.9657555         1.90918430E-17
   55.0925484         2.19120740E-17
   55.2193375         2.41314161E-17
   55.3461304         2.55669666E-17
   55.4729233         2.60471631E-17
   55.5997162         2.54210850E-17
   55.7265091         2.35680151E-17
   55.8533020         2.04068170E-17
   55.9800949         1.59047046E-17
   56.1068878         1.00849199E-17
   56.2336807         3.03282732E-18
   56.3604736        -5.10003128E-18
   56.4872665        -1.40943569E-17
   56.6140594        -2.36643618E-17
   56.7408524        -3.34621656E-17
   56.8676453        -4.30855220E-17
   56.9944382        -5.20888701E-17
   57.1212273        -5.99976862E-17
   57.2480202        -6.63258495E-17
   57.3748131        -7.05956235E-17
   57.5016060        -7.23596292E-17
   57.6283989        -7.12241749E-17
   57.7551918        -6.68729534E-17
   57.8819847        -5.90902029E-17
   58.0087776        -4.77822105E-17
   58.1355705        -3.29960824E-17
   58.2623634        -1.49345243E-17
   58.3891563         6.03431814E-18
   58.5159492         2.93730214E-17
   58.6427422         5.43779535E-17
   58.7695351         8.01897804E-17
   58.8963280         1.05811879E-16
   59.0231171         1.30136779E-16
   59.1499100         1.51980369E-16
   59.2767029         1.70123193E-16
   59.4034958         1.83358056E-16
   59.5302887         1.90542550E-16
   59.6570816         1.90654662E-16
   59.7838745         1.82849624E-16
   59.9106674         1.66515865E-16
   60.0374603         1.41327169E-16
   60.1642532         1.07288846E-16
   60.2910461         6.47752300E-17
   60.4178391         1.45557914E-17
   60.5446320        -4.21922199E-17
   60.6714249        -1.03886798E-16
   60.7982178        -1.68561224E-16
   60.9250069        -2.33902457E-16
   61.0517998        -2.97307929E-16
   61.1785927        -3.55960646E-16
   61.3053856        -4.06921351E-16
   61.4321785        -4.47235778E-16
   61.5589714        -4.74054112E-16
   61.6857643        -4.84759444E-16
   61.8125572        -4.77100254E-16
   61.9393501        -4.49322550E-16
   62.0661430        -4.00295595E-16
   62.1929359        -3.29626365E-16
   62.3197289        -2.37755478E-16
   62.4465218        -1.26030178E-16
   62.5733147         3.25222726E-18
   62.7001076         1.46834657E-16
   62.8268967         3.00528560E-16
   62.9536896         4.59282863E-16
   63.0804825         6.17295271E-16
   63.2072754         7.68165868E-16
   63.3340683         9.05091021E-16
   63.4608612         1.02109388E-15
   63.5876541         1.10928674E-15
   63.7144470         1.16315687E-15
   63.8412399         1.17686800E-15
   63.9680328         1.14556579E-15
   64.0948257         1.06567555E-15
   64.2216187         9.35180807E-16
   64.3484116         7.53867264E-16
   64.4752045         5.23520148E-16
   64.6019974         2.48062201E-16
   64.7287903        -6.63800332E-17
   64.8555832        -4.11490856E-16
   64.9823761        -7.76870032E-16
   65.1091690        -1.15023093E-15
   65.2359619        -1.51769532E-15
   65.3627548        -1.86418145E-15
   65.4895477        -2.17388147E-15
   65.6163330        -2.43081388E-15
   65.7431259        -2.61944431E-15
   65.8699188        -2.72534672E-15
   65.9967117        -2.73588995E-15
   66.1235046        -2.64092358E-15
   66.2502975        -2.43343206E-15
   66.3770905        -2.11012975E-15
   66.5038834        -1.67196871E-15
   66.6306763        -1.12452655E-15
   66.7574692        -4.78250154E-16
   66.8842621         2.51472912E-16
   67.0110550         1.04443091E-15
   67.1378479         1.87591074E-15
   67.2646408         2.71723130E-15
   67.3914337         3.53648919E-15
   67.5182266         4.29950705E-15
   67.6450195         4.97096447E-15
   67.7718124         5.51568839E-15
   67.8986053         5.90006136E-15
   68.0253983         6.09350801E-15
   68.1521912         6.07000242E-15
   68.2789841         5.80954064E-15
   68.4057770         5.29951373E-15
   68.5325699         4.53592072E-15
   68.6593628         3.52435078E-15
   68.7861557         2.28067581E-15
   68.9129486         8.31399684E-16
   69.0397415        -7.86388300E-16
   69.1665344        -2.52548442E-15
   69.2933273        -4.32949244E-15
   69.4201126        -6.13420244E-15
   69.5469055        -7.86940957E-15
   69.6736984        -9.46114118E-15
   69.8004913        -1.08342494E-14
   69.9272842        -1.19152811E-14
   70.0540771        -1.26355488E-14
   70.1808701        -1.29343024E-14
   70.3076630        -1.27618490E-14
   70.4344559        -1.20825421E-14
   70.5612488        -1.08774540E-14
   70.6880417        -9.14663446E-15
   70.8148346        -6.91080163E-15
   70.9416275        -4.21235795E-15
   71.0684204        -1.11562837E-15
   71.1952133         2.29376734E-15
   71.3220062         5.91044979E-15
   71.4487991         9.61174110E-15
   71.5755920         1.32610428E-14
   71.7023849         1.67120600E-14
   71.8291779         1.98137811E-14
   71.9559708         2.24160883E-14
   72.0827637         2.43757922E-14
   72.2095566         2.55629190E-14
   72.3363495         2.58669869E-14
   72.4631424         2.52030367E-14
   72.5899353         2.35171362E-14
   72.7167282         2.07910912E-14
   72.8435211         1.70461145E-14
   72.9703140         1.23452087E-14
   73.0971069         6.79405339E-15
   73.2238922         5.40252013E-16
   73.3506851        -6.22917770E-15
   73.4774780        -1.32920908E-14
   73.6042709        -2.03972750E-14
   73.7310638        -2.72721637E-14
   73.8578568        -3.36320192E-14
   73.9846497        -3.91903307E-14
   74.1114426        -4.36700813E-14
   74.2382355        -4.68155347E-14
   74.3650284        -4.84040535E-14
   74.4918213        -4.82574965E-14
   74.6186142        -4.62526745E-14
   74.7454071        -4.23303733E-14
   74.8722000        -3.65025122E-14
   74.9989929        -2.88568980E-14
   75.1257858        -1.95592918E-14
   75.2525787        -8.85249719E-15
   75.3793716         2.94779515E-15
   75.5061646         1.54603621E-14
   75.6329575         2.82490231E-14
   75.7597504         4.08361801E-14
   75.8865433         5.27190155E-14
   76.0133362         6.33878597E-14
   76.1401291         7.23461072E-14
   76.2669220         7.91310512E-14
   76.3937149         8.33346792E-14
   76.5205078         8.46237753E-14
   76.6473007         8.27583106E-14
   76.7740936         7.76072932E-14
   76.9008865         6.91612024E-14
   77.0276718         5.75403847E-14
   77.1544647         4.29986315E-14
   77.2812576         2.59216002E-14
   77.4080505         6.81971002E-15
   77.5348434        -1.36844839E-14
   77.6616364        -3.48743692E-14
   77.7884293        -5.59623216E-14
   77.9152222        -7.61171454E-14
   78.0420151        -9.44950227E-14
   78.1688080        -1.10272909E-13
   78.2956009        -1.22683168E-13
   78.4223938        -1.31048086E-13
   78.5491867        -1.34812747E-13
   78.6759796        -1.33574887E-13
   78.8027725        -1.27110236E-13
   78.9295654        -1.15392071E-13
   79.0563583        -9.86036610E-14
   79.1831512        -7.71428277E-14
   79.3099442        -5.16178863E-14
   79.4367371        -2.28345547E-14
   79.5635300         8.22607143E-15
   79.6903229         4.04381694E-14
   79.8171158         7.25696087E-14
   79.9439087         1.03326981E-13
   80.0707016         1.31405873E-13
   80.1974945         1.55544333E-13
   80.3242874         1.74577719E-13
   80.4510803         1.87492437E-13
   80.5778732         1.93476325E-13
   80.7046585         1.91963470E-13
   80.8314514         1.82670922E-13
   80.9582443         1.65625705E-13
   81.0850372         1.41179996E-13
   81.2118301         1.10013452E-13
   81.3386230         7.31216913E-14
   81.4654160         3.17906610E-14
   81.5922089        -1.24427615E-14
   81.7190018        -5.78430736E-14
   81.8457947        -1.02539911E-13
   81.9725876        -1.44600979E-13
   82.0993805        -1.82111813E-13
   82.2261734        -2.13259044E-13
   82.3529663        -2.36413970E-13
   82.4797592        -2.50212855E-13
   82.6065521        -2.53630043E-13
   82.7333450        -2.46040520E-13
   82.8601379        -2.27268914E-13
   82.9869308        -1.97621284E-13
   83.1137238        -1.57898109E-13
   83.2405167        -1.09386607E-13
   83.3673096        -5.38308513E-14
   83.4941025         6.61906062E-15
   83.6208954         6.94787516E-14
   83.7476883         1.32019978E-13
   83.8744812         1.91376822E-13
   84.0012741         2.44664179E-13
   84.1280670         2.89103566E-13
   84.2548599         3.22152136E-13
   84.3816528         3.41628825E-13
   84.5084381         3.45831897E-13
   84.6352310         3.33642537E-13
   84.7620239         3.04610232E-13
   84.8888168         2.59012565E-13
   85.0156097         1.97887808E-13
   85.1424026         1.23036469E-13
   85.2691956         3.69893020E-14
   85.3959885        -5.70579215E-14
   85.5227814        -1.55342820E-13
   85.6495743        -2.53664792E-13
   85.7763672        -3.47540925E-13
   85.9031601        -4.32382889E-13
   86.0299530        -5.03689972E-13
   86.1567459        -5.57249830E-13
   86.2835388        -5.89339504E-13
   86.4103317        -5.96918185E-13
   86.5371246        -5.77802129E-13
   86.6639175        -5.30814325E-13
   86.7907104        -4.55900834E-13
   86.9175034        -3.54205841E-13
   87.0442963        -2.28101880E-13
   87.1710892        -8.11683416E-14
   87.2978821         8.18801949E-14
   87.4246750         2.55319772E-13
   87.5514679         4.32591137E-13
   87.6782608         6.06520476E-13
   87.8050537         7.69578845E-13
   87.9318466         9.14171516E-13
   88.0586395         1.03294923E-12
   88.1854324         1.11912671E-12
   88.3122177         1.16679789E-12
   88.4390106         1.17123249E-12
   88.5658035         1.12914322E-12
   88.6925964         1.03890887E-12
   88.8193893         9.00742588E-13
   88.9461823         7.16794788E-13
   89.0729752         4.91183700E-13
   89.1997681         2.29946840E-13
   89.3265610        -5.90881578E-14
   89.4533539        -3.66510452E-13
   89.5801468        -6.81610747E-13
   89.7069397        -9.92732914E-13
   89.8337326        -1.28768404E-12
   89.9605255        -1.55418744E-12
   90.0873184        -1.78036568E-12
   90.2141113        -1.95523068E-12
   90.3409042        -2.06916689E-12
   90.4676971        -2.11438289E-12
   90.5944901        -2.08531586E-12
   90.7212830        -1.97896690E-12
   90.8480759        -1.79515192E-12
   90.9748688        -1.53665242E-12
   91.1016617        -1.20925654E-12
   91.2284546        -8.21681753E-13
   91.3552475        -3.85378117E-13
   91.4820404         8.57869209E-14
   91.6088333         5.75955136E-13
   91.7356262         1.06780405E-12
   91.8624191         1.54315710E-12
   91.9892120         1.98365456E-12
   92.1159973         2.37146717E-12
   92.2427902         2.69001770E-12
   92.3695831         2.92468979E-12
   92.4963760         3.06348718E-12
   92.6231689         3.09762285E-12
   92.7499619         3.02200149E-12
   92.8767548         2.83558051E-12
   93.0035477         2.54158608E-12
   93.1303406         2.14756359E-12
   93.2571335         1.66526146E-12
   93.3839264         1.11033860E-12
   93.5107193         5.01904291E-13
   93.6375122        -1.38102298E-13
   93.7643051        -7.85674585E-13
   93.8910980        -1.41561665E-12
   94.0178909        -2.00250602E-12
   94.1446838        -2.52171374E-12
   94.2714767        -2.95043200E-12
   94.3982697        -3.26867526E-12
   94.5250626        -3.46021389E-12
   94.6518555        -3.51339509E-12
   94.7786484        -3.42181882E-12
   94.9054413        -3.18482523E-12
   95.0322342        -2.80777636E-12
   95.1590271        -2.30210425E-12
   95.2858200        -1.68511776E-12
   95.4126129        -9.79557256E-13
   95.5394058        -2.12913210E-13
   95.6661987         5.83480475E-13
   95.7929916         1.37555429E-12
   95.9197769         2.12777235E-12
   96.0465698         2.80451725E-12
   96.1733627         3.37155889E-12
   96.3001556         3.79751786E-12
   96.4269485         4.05530470E-12
   96.5537415         4.12344291E-12
   96.6805344         3.98723979E-12
   96.8073273         3.63974562E-12
   96.9341202         3.08244879E-12
   97.0609131         2.32567242E-12
   97.1877060         1.38864148E-12
   97.3144989         2.99204428E-13
   97.4412918        -9.06802899E-13
   97.5680847        -2.18652440E-12
   97.6948776        -3.49138600E-12
   97.8216705        -4.76867200E-12
   97.9484634        -5.96334093E-12
   98.0752563        -7.02002085E-12