  -4.50000000         0.00000000    
  -4.37320757         0.00000000    
  -4.24641466         0.00000000    
  -4.11962223         0.00000000    
  -3.99282932         0.00000000    
  -3.86603665         0.00000000    
  -3.73924398         0.00000000    
  -3.61245155         0.00000000    
  -3.48565888         0.00000000    
  -3.35886621         0.00000000    
  -3.23207355         0.00000000    
  -3.10528088         0.00000000    
  -2.97848821         0.00000000    
  -2.85169554         0.00000000    
  -2.72490287         0.00000000    
  -2.59811020         0.00000000    
  -2.47131753         0.00000000    
  -2.34452486         0.00000000    
  -2.21773219         0.00000000    
  -2.09093952         0.00000000    
  -1.96414697         0.00000000    
  -1.83735430         0.00000000    
  -1.71056163         0.00000000    
  -1.58376896         0.00000000    
  -1.45697629         0.00000000    
  -1.33018374         0.00000000    
  -1.20339108         0.00000000    
  -1.07659841         0.00000000    
 -0.949805737         0.00000000    
 -0.823013067         0.00000000    
 -0.696220458         0.00000000    
 -0.569427788         0.00000000    
 -0.442635119         0.00000000    
 -0.315842479         0.00000000    
 -0.189049825         0.00000000    
  -6.22571707E-02     0.00000000    
   6.45354837E-02     0.00000000    
  0.191328138         0.00000000    
  0.318120778         0.00000000    
  0.444913447         0.00000000    
  0.571706116         0.00000000    
  0.698498726         0.00000000    
  0.825291395         0.00000000    
  0.952084064         0.00000000    
   1.07887673         0.00000000    
   1.20566940         0.00000000    
   1.33246195         0.00000000    
   1.45925462         0.00000000    
   1.58604729         0.00000000    
   1.71283996         0.00000000    
   1.83963263         0.00000000    
   1.96642530         0.00000000    
   2.09321785         0.00000000    
   2.22001052         0.00000000    
   2.34680319         0.00000000    
   2.47359586         0.00000000    
   2.60038853         0.00000000    
   2.72718120         0.00000000    
   2.85397387         0.00000000    
   2.98076653         0.00000000    
   3.10755920         0.00000000    
   3.23435187         0.00000000    
   3.36114454         0.00000000    
   3.48793697         0.00000000    
   3.61472964         0.00000000    
   3.74152231         0.00000000    
   3.86831498         0.00000000    
   3.99510765         0.00000000    
   4.12190056         0.00000000    
   4.24869299         0.00000000    
   4.37548542         0.00000000    
   4.50227833         0.00000000    
   4.62907076         0.00000000    
   4.75586367         0.00000000    
   4.88265610         0.00000000    
   5.00944901         0.00000000    
   5.13624144         0.00000000    
   5.26303434         0.00000000    
   5.38982677         0.00000000    
   5.51661968         0.00000000    
   5.64341211         0.00000000    
   5.77020502         0.00000000    
   5.89699745         0.00000000    
   6.02379036         0.00000000    
   6.15058279         0.00000000    
   6.27737522         0.00000000    
   6.40416813         0.00000000    
   6.53096056         0.00000000    
   6.65775347         0.00000000    
   6.78454590         0.00000000    
   6.91133881         0.00000000    
   7.03813124         0.00000000    
   7.16492414         0.00000000    
   7.29171658         0.00000000    
   7.41850948         0.00000000    
   7.54530191         0.00000000    
   7.67209482         0.00000000    
   7.79888725         0.00000000    
   7.92567968         0.00000000    
   8.05247211         0.00000000    
   8.17926502         0.00000000    
   8.30605793         0.00000000    
   8.43285084         0.00000000    
   8.55964279         0.00000000    
   8.68643570         0.00000000    
   8.81322861         0.00000000    
   8.94002151         0.00000000    
   9.06681347         0.00000000    
   9.19360638         0.00000000    
   9.32039928         0.00000000    
   9.44719219         0.00000000    
   9.57398415         0.00000000    
   9.70077705         0.00000000    
   9.82756996         0.00000000    
   9.95436192         0.00000000    
   10.0811548         0.00000000    
   10.2079477         0.00000000    
   10.3347406         0.00000000    
   10.4615326         0.00000000    
   10.5883255         0.00000000    
   10.7151184         0.00000000    
   10.8419113         0.00000000    
   10.9687033         0.00000000    
   11.0954962         0.00000000    
   11.2222891         0.00000000    
   11.3490820         0.00000000    
   11.4758739         0.00000000    
   11.6026669         0.00000000    
   11.7294598         0.00000000    
   11.8562517         0.00000000    
   11.9830446         0.00000000    
   12.1098375         0.00000000    
   12.2366304         0.00000000    
   12.3634224         0.00000000    
   12.4902153         0.00000000    
   12.6170082         0.00000000    
   12.7438011         0.00000000    
   12.8705931         0.00000000    
   12.9973860         0.00000000    
   13.1241789         0.00000000    
   13.2509708         0.00000000    
   13.3777637         0.00000000    
   13.5045567         0.00000000    
   13.6313496         0.00000000    
   13.7581415         0.00000000    
   13.8849344         0.00000000    
   14.0117273         0.00000000    
   14.1385202         0.00000000    
   14.2653122         0.00000000    
   14.3921051         0.00000000    
   14.5188980         0.00000000    
   14.6456909         0.00000000    
   14.7724829         0.00000000    
   14.8992758         0.00000000    
   15.0260687         0.00000000    
   15.1528606         0.00000000    
   15.2796535         0.00000000    
   15.4064465         0.00000000    
   15.5332394         0.00000000    
   15.6600313         0.00000000    
   15.7868242         0.00000000    
   15.9136171         0.00000000    
   16.0404091         0.00000000    
   16.1672020         0.00000000    
   16.2939949         0.00000000    
   16.4207878         0.00000000    
   16.5475807         0.00000000    
   16.6743736         0.00000000    
   16.8011646         0.00000000    
   16.9279575         0.00000000    
   17.0547504         0.00000000    
   17.1815434         0.00000000    
   17.3083363         0.00000000    
   17.4351292         0.00000000    
   17.5619221         0.00000000    
   17.6887150         0.00000000    
   17.8155060         0.00000000    
   17.9422989         0.00000000    
   18.0690918         0.00000000    
   18.1958847         0.00000000    
   18.3226776         0.00000000    
   18.4494705         0.00000000    
   18.5762634         0.00000000    
   18.7030544         0.00000000    
   18.8298473         0.00000000    
   18.9566402         0.00000000    
   19.0834332         0.00000000    
   19.2102261         5.56777548E-35
   19.3370190         1.11355510E-34
   19.4638119         1.67033270E-34
   19.5906048         1.54081917E-34
   19.7173958         3.17271941E-34
   19.8441887         4.20148956E-34
   19.9709816        -1.22837208E-34
   20.0977745        -1.68411827E-33
   20.2245674        -3.57577704E-33
   20.3513603        -4.96720823E-33
   20.4781532        -4.97874277E-33
   20.6049442        -2.89335151E-33
   20.7317371         8.11408486E-34
   20.8585300         4.92392874E-33
   20.9853230         9.76790843E-33
   21.1121159         1.48507798E-32
   21.2389088         1.67258417E-32
   21.3657017         1.34785341E-32
   21.4924946         4.48629807E-33
   21.6192856        -8.17613332E-33
   21.7460785        -1.80587803E-32
   21.8728714        -1.33818806E-32
   21.9996643         2.19882959E-33
   22.1264572         2.30026597E-32
   22.2532501         4.59681768E-32
   22.3800430         5.91061658E-32
   22.5068340         1.83743991E-31
   22.6336269         9.66093762E-31
   22.7604198         2.56523637E-30
   22.8872128         5.17082925E-30
   23.0140057         8.13639800E-30
   23.1407986         1.12520418E-29
   23.2675915         1.27360243E-29
   23.3943844         1.25966840E-29
   23.5211754         1.02094306E-29
   23.6479683         6.14368869E-30
   23.7747612         1.47947935E-30
   23.9015541        -3.45164262E-30
   24.0283470        -1.39072093E-29
   24.1551399        -2.94750247E-29
   24.2819328        -4.71346166E-29
   24.4087238        -6.75224659E-29
   24.5355167        -8.89035383E-29
   24.6623096        -9.54770682E-29
   24.7891026        -9.50012491E-29
   24.9158955        -8.55890128E-29
   25.0426884        -7.25804213E-29
   25.1694813        -5.37632793E-29
   25.2962742        -2.46518777E-29
   25.4230652         4.76905205E-31
   25.5498581         1.79873446E-29
   25.6766510         1.97940414E-29
   25.8034439         7.94984986E-30
   25.9302368        -1.52649298E-29
   26.0570297        -4.62121714E-29
   26.1838226        -9.12657335E-29
   26.3106136        -1.34487255E-28
   26.4374065        -1.74036900E-28
   26.5641994        -2.04695923E-28
   26.6909924        -2.14486749E-28
   26.8177853        -1.93129595E-28
   26.9445782        -1.38069436E-28
   27.0713711        -3.52053163E-29
   27.1981640         1.30192672E-28
   27.3249550         3.70701912E-28
   27.4517479         7.05426250E-28
   27.5785408         1.13741917E-27
   27.7053337         1.67128272E-27
   27.8321266         2.31166617E-27
   27.9589195         3.06368654E-27
   28.0857124         3.90812863E-27
   28.2125034         4.82118582E-27
   28.3392963         5.74627276E-27
   28.4660892         6.60324495E-27
   28.5928822         7.28077401E-27
   28.7196751         7.61617548E-27
   28.8464680         7.41659444E-27
   28.9732609         6.46449710E-27
   29.1000538         4.52743875E-27
   29.2268448         1.37500074E-27
   29.3536377        -3.20087920E-27
   29.4804306        -9.35176808E-27
   29.6072235        -1.71429089E-26
   29.7340164        -2.65122530E-26
   29.8608093        -3.72408815E-26
   29.9876022        -4.89087783E-26
   30.1143932        -6.08712869E-26
   30.2411861        -7.22249737E-26
   30.3679790        -8.18007467E-26
   30.4947720        -8.81674212E-26
   30.6215649        -8.96620168E-26
   30.7483578        -8.44501299E-26
   30.8751507        -7.06224706E-26
   31.0019417        -4.63268150E-26
   31.1287346        -9.94087384E-27
   31.2555275         3.97190849E-26
   31.3823204         1.03165183E-25
   31.5091133         1.79976323E-25
   31.6359062         2.68537521E-25
   31.7626991         3.65790882E-25
   31.8894920         4.67026511E-25
   32.0162849         5.65740719E-25
   32.1430779         6.53590883E-25
   32.2698708         7.20480815E-25
   32.3966637         7.54804745E-25
   32.5234528         7.43883409E-25
   32.6502457         6.74605595E-25
   32.7770386         5.34289377E-25
   32.9038315         3.11755488E-25
   33.0306244        -1.40552345E-27
   33.1574173        -4.09415876E-25
   33.2842102        -9.10804602E-25
   33.4110031        -1.49689769E-24
   33.5377960        -2.15041668E-24
   33.6645889        -2.84431313E-24
   33.7913818        -3.54098992E-24
   33.9181747        -4.19207075E-24
   34.0449677        -4.73887245E-24
   34.1717606        -5.11374428E-24
   34.2985535        -5.24239447E-24
   34.4253426        -5.04730444E-24
   34.5521355        -4.45226863E-24
   34.6789284        -3.38802585E-24
   34.8057213        -1.79887778E-24
   34.9325142         3.49920924E-25
   35.0593071         3.06431106E-24
   35.1861000         6.31354176E-24
   35.3128929         1.00227720E-23
   35.4396858         1.40667910E-23
   35.5664787         1.82655489E-23
   35.6932716         2.23822463E-23
   35.8200645         2.61247460E-23
   35.9468575         2.91509948E-23
   36.0736504         3.10790686E-23
   36.2004433         3.15023083E-23
   36.3272324         3.00097393E-23
   36.4540253         2.62116817E-23
   36.5808182         1.97701780E-23
   36.7076111         1.04333008E-23
   36.8344040        -1.92787547E-24
   36.9611969        -1.72814544E-23
   37.0879898        -3.53982335E-23
   37.2147827        -5.58191981E-23
   37.3415756        -7.78299509E-23
   37.4683685        -1.00445331E-22
   37.5951614        -1.22407345E-22
   37.7219543        -1.42199739E-22
   37.8487473        -1.58082020E-22
   37.9755402        -1.68144894E-22
   38.1023293        -1.70388983E-22
   38.2291222        -1.62826596E-22
   38.3559151        -1.43605943E-22
   38.4827080        -1.11154604E-22
   38.6095009        -6.43383342E-23
   38.7362938        -2.62849736E-24
   38.8630867         7.37298685E-23
   38.9898796         1.63559277E-22
   39.1166725         2.64612018E-22
   39.2434654         3.73465912E-22
   39.3702583         4.85466970E-22
   39.4970512         5.94732612E-22
   39.6238441         6.94228091E-22
   39.7506371         7.75926767E-22
   39.8774300         8.31063525E-22
   40.0042191         8.50485356E-22
   40.1310120         8.25099989E-22
   40.2578049         7.46415695E-22
   40.3845978         6.07162687E-22
   40.5113907         4.01974790E-22
   40.6381836         1.28106341E-22
   40.7649765        -2.13850144E-22
   40.8917694        -6.19285800E-22
   41.0185623        -1.07898421E-21
   41.1453552        -1.57866834E-21
   41.2721481        -2.09873957E-21
   41.3989410        -2.61426272E-21
   41.5257339        -3.09525189E-21
   41.6525269        -3.50729507E-21
   41.7793198        -3.81255986E-21
   41.9061089        -3.97119840E-21
   42.0329018        -3.94315140E-21
   42.1596947        -3.69033988E-21
   42.2864876        -3.17919114E-21
   42.4132805        -2.38343672E-21
   42.5400734        -1.28707647E-21
   42.6668663         1.12623665E-22
   42.7936592         1.80225126E-21
   42.9204521         3.74967353E-21
   43.0472450         5.90197366E-21
   43.1740379         8.18410721E-21
   43.3008308         1.04985036E-20
   43.4276237         1.27258183E-20
   43.5544167         1.47270283E-20
   43.6812096         1.63470228E-20
   43.8079987         1.74197823E-20
   43.9347916         1.77752083E-20
   44.0615845         1.72475155E-20
   44.1883774         1.56850715E-20
   44.3151703         1.29614428E-20
   44.4419632         8.98724304E-21
   44.5687561         3.72234951E-21
   44.6955490        -2.81213297E-21
   44.8223419        -1.05228425E-20
   44.9491348        -1.92348573E-20
   45.0759277        -2.86849434E-20
   45.2027206        -3.85182307E-20
   45.3295135        -4.82891660E-20
   45.4563065        -5.74674877E-20
   45.5830994        -6.54499293E-20
   45.7098885        -7.15781033E-20
   45.8366814        -7.51627680E-20
   45.9634743        -7.55144878E-20
   46.0902672        -7.19801389E-20
   46.2170601        -6.39846240E-20
   46.3438530        -5.10763155E-20
   46.4706459        -3.29747118E-20
   46.5974388        -9.61808135E-21
   46.7242317         1.87914400E-20
   46.8510246         5.17481380E-20
   46.9778175         8.84116036E-20
   47.1046104         1.27587401E-19
   47.2314034         1.67722773E-19
   47.3581963         2.06920523E-19
   47.4849892         2.42973474E-19
   47.6117783         2.73421811E-19
   47.7385712         2.95634377E-19
   47.8653641         3.06913915E-19
   47.9921570         3.04625158E-19
   48.1189499         2.86343510E-19
   48.2457428         2.50019786E-19
   48.3725357         1.94155549E-19
   48.4993286         1.17981559E-19
   48.6261215         2.16308877E-20
   48.7529144        -9.37038470E-20
   48.8797073        -2.25639801E-19
   49.0065002        -3.70511438E-19
   49.1332932        -5.23328222E-19
   49.2600861        -6.77793190E-19
   49.3868790        -8.26392309E-19
   49.5136681        -9.60562349E-19
   49.6404610        -1.07094298E-18
   49.7672539        -1.14771320E-18
   49.8940468        -1.18101126E-18
   50.0208397        -1.16142941E-18
   50.1476326        -1.08057137E-18
   50.2744255        -9.31654868E-19
   50.4012184        -7.10134504E-19
   50.5280113        -4.14318794E-19
   50.6548042        -4.59461284E-20
   50.7815971         3.89314675E-19
   50.9083900         8.81479126E-19
   51.0351830         1.41601482E-18
   51.1619759         1.97380101E-18
   51.2887688         2.53131205E-18
   51.4155579         3.06105506E-18
   51.5423508         3.53227752E-18
   51.6691437         3.91196004E-18
   51.7959366         4.16607985E-18
   51.9227295         4.26113655E-18
   52.0495224         4.16590077E-18
   52.1763153         3.85332907E-18
   52.3031082         3.30258560E-18
   52.4299011         2.50107550E-18
   52.5566940         1.44639716E-18
   52.6834869         1.48101803E-19
   52.8102798        -1.37086213E-18
   52.9370728        -3.07313748E-18
   53.0638657        -4.90649666E-18
   53.1906586        -6.80404154E-18
   53.3174477        -8.68515572E-18
   53.4442406        -1.04572760E-17
   53.5710335        -1.20185298E-17
   53.6978264        -1.32612214E-17
   53.8246193        -1.40761507E-17
   53.9514122        -1.43576469E-17
   54.0782051        -1.40092119E-17
   54.2049980        -1.29495563E-17
   54.3317909        -1.11188137E-17
   54.4585838        -8.48463804E-18
   54.5853767        -5.04789078E-18
   54.7121696        -8.47560895E-19
   54.8389626         4.03542337E-18
   54.9657555         9.47584361E-18
   55.0925484         1.53036090E-17
   55.2193375         2.13052559E-17
   55.3461304         2.72277318E-17
   55.4729233         3.27845988E-17
   55.5997162         3.76647394E-17
   55.7265091         4.15434588E-17
   55.8533020         4.40958172E-17
   55.9800949         4.50118371E-17
   56.1068878         4.40131521E-17
   56.2336807         4.08704812E-17
   56.3604736         3.54211973E-17
   56.4872665         2.75862203E-17
   56.6140594         1.73852702E-17
   56.7408524         4.94959071E-18
   56.8676453        -9.46882250E-18
   56.9944382        -2.54924111E-17
   57.1212273        -4.26183899E-17
   57.2480202        -6.02250881E-17
   57.3748131        -7.75845254E-17
   57.5016060        -9.38816908E-17
   57.6283989        -1.08240382E-16
   57.7551918        -1.19755199E-16
   57.8819847        -1.27529175E-16
   58.0087776        -1.30715752E-16
   58.1355705        -1.28564037E-16
   58.2623634        -1.20465224E-16
   58.3891563        -1.05998629E-16
   58.5159492        -8.49748416E-17
   58.6427422        -5.74736935E-17
   58.7695351        -2.38747370E-17
   58.8963280         1.51221338E-17
   59.0231171         5.84881809E-17
   59.1499100         1.04871189E-16
   59.2767029         1.52616133E-16
   59.4034958         1.99802274E-16
   59.5302887         2.44296584E-16
   59.6570816         2.83823297E-16
   59.7838745         3.16048374E-16
   59.9106674         3.38676462E-16
   60.0374603         3.49557712E-16
   60.1642532         3.46800647E-16
   60.2910461         3.28886535E-16
   60.4178391         2.94780542E-16
   60.5446320         2.44033845E-16
   60.6714249         1.76871438E-16
   60.7982178         9.42598182E-17
   60.9250069        -2.05081566E-18
   61.0517998        -1.09514293E-16
   61.1785927        -2.24810617E-16
   61.3053856        -3.43904720E-16
   61.4321785        -4.62143611E-16
   61.5589714        -5.74391570E-16
   61.6857643        -6.75201514E-16
   61.8125572        -7.59019183E-16
   61.9393501        -8.20413560E-16
   62.0661430        -8.54327066E-16
   62.1929359        -8.56335857E-16
   62.3197289        -8.22909714E-16
   62.4465218        -7.51660531E-16
   62.5733147        -6.41565942E-16
   62.7001076        -4.93156505E-16
   62.8268967        -3.08654306E-16
   62.9536896        -9.20510938E-17
   63.0804825         1.50882614E-16
   63.2072754         4.12665902E-16
   63.3340683         6.84257249E-16
   63.4608612         9.55287675E-16
   63.5876541         1.21437547E-15
   63.7144470         1.44951562E-15
   63.8412399         1.64853554E-15
   63.9680328         1.79960196E-15
   64.0948257         1.89176338E-15
   64.2216187         1.91550424E-15
   64.3484116         1.86329249E-15
   64.4752045         1.73009021E-15
   64.6019974         1.51380659E-15
   64.7287903         1.21566349E-15
   64.8555832         8.40451819E-16
   64.9823761         3.96656185E-16
   65.1091690        -1.03568803E-16
   65.2359619        -6.44584820E-16
   65.3627548        -1.20762408E-15
   65.4895477        -1.77131106E-15
   65.6163330        -2.31234637E-15
   65.7431259        -2.80633260E-15
   65.8699188        -3.22872485E-15
   65.9967117        -3.55586761E-15
   66.1235046        -3.76608933E-15
   66.2502975        -3.84080060E-15
   66.3770905        -3.76555951E-15
   66.5038834        -3.53104531E-15
   66.6306763        -3.13389379E-15
   66.7574692        -2.57734698E-15
   66.8842621        -1.87166668E-15
   67.0110550        -1.03428165E-15
   67.1378479        -8.96324375E-17
   67.2646408         9.31302243E-16
   67.3914337         1.99180306E-15
   67.5182266         3.05052584E-15
   67.6450195         4.06290958E-15
   67.7718124         4.98284411E-15
   67.8986053         5.76453905E-15
   68.0253983         6.36453865E-15
   68.1521912         6.74379257E-15
   68.2789841         6.86970317E-15
   68.4057770         6.71805886E-15
   68.5325699         6.27475951E-15
   68.6593628         5.53722675E-15
   68.7861557         4.51543439E-15
   68.9129486         3.23246132E-15
   69.0397415         1.72451514E-15
   69.1665344         4.03795429E-17
   69.2933273        -1.75973625E-15
   69.4201126        -3.60594546E-15
   69.5469055        -5.42100155E-15
   69.6736984        -7.12311764E-15
   69.8004913        -8.62922523E-15
   69.9272842        -9.85854532E-15
   70.0540771        -1.07363374E-14
   70.1808701        -1.11977036E-14
   70.3076630        -1.11912382E-14
   70.4344559        -1.06823924E-14
   70.5612488        -9.65635517E-15
   70.6880417        -8.12030242E-15
   70.8148346        -6.10484216E-15
   70.9416275        -3.66454871E-15
   71.0684204        -8.77481770E-16
   71.1952133         2.15638071E-15
   71.3220062         5.31780286E-15
   71.4487991         8.47201761E-15
   71.5755920         1.14734518E-14
   71.7023849         1.41713076E-14
   71.8291779         1.64158492E-14
   71.9559708         1.80651545E-14
   72.0827637         1.89920779E-14
   72.2095566         1.90911621E-14
   72.3363495         1.82851577E-14
   72.4631424         1.65308644E-14
   72.5899353         1.38239775E-14
   72.7167282         1.02026355E-14
   72.8435211         5.74943264E-15
   72.9703140         5.91664107E-16
   73.0971069        -5.10034028E-15
   73.2238922        -1.11168746E-14
   73.3506851        -1.72145386E-14
   73.4774780        -2.31238284E-14
   73.6042709        -2.85585053E-14
   73.7310638        -3.32264564E-14
   73.8578568        -3.68417726E-14
   73.9846497        -3.91375504E-14
   74.1114426        -3.98789888E-14
   74.2382355        -3.88762813E-14
   74.3650284        -3.59966844E-14
   74.4918213        -3.11752746E-14
   74.6186142        -2.44237376E-14
   74.7454071        -1.58368039E-14
   74.8722000        -5.59575249E-15
   74.9989929         6.03132690E-15
   75.1257858         1.86927923E-14
   75.2525787         3.19604098E-14
   75.3793716         4.53399593E-14
   75.5061646         5.82854687E-14
   75.6329575         7.02166732E-14
   75.7597504         8.05392943E-14
   75.8865433         8.86676325E-14
   76.0133362         9.40486228E-14
   76.1401291         9.61866627E-14
   76.2669220         9.46682104E-14
   76.3937149         8.91851900E-14
   76.5205078         7.95562211E-14
   76.6473007         6.57446848E-14
   76.7740936         4.78727165E-14
   76.9008865         2.62301675E-14
   77.0276718         1.27799770E-15
   77.1544647        -2.63546458E-14
   77.2812576        -5.58798443E-14
   77.4080505        -8.63671249E-14
   77.5348434        -1.16766162E-13
   77.6616364        -1.45935876E-13
   77.7884293        -1.72679010E-13
   77.9152222        -1.95781515E-13
   78.0420151        -2.14055729E-13
   78.1688080        -2.26385601E-13
   78.2956009        -2.31773043E-13
   78.4223938        -2.29383488E-13
   78.5491867        -2.18588873E-13
   78.6759796        -1.99006637E-13
   78.8027725        -1.70532818E-13
   78.9295654        -1.33367709E-13
   79.0563583        -8.80327712E-14
   79.1831512        -3.53774423E-14
   79.3099442         2.34248706E-14
   79.4367371         8.68925158E-14
   79.5635300         1.53262846E-13
   79.6903229         2.20531357E-13
   79.8171158         2.86501617E-13
   79.9439087         3.48845274E-13
   80.0707016         4.05170933E-13
   80.1974945         4.53099689E-13
   80.3242874         4.90345557E-13
   80.4510803         5.14798436E-13
   80.5778732         5.24606563E-13
   80.7046585         5.18256390E-13
   80.8314514         4.94646316E-13
   80.9582443         4.53152029E-13
   81.0850372         3.93680666E-13
   81.2118301         3.16711121E-13
   81.3386230         2.23318529E-13
   81.4654160         1.15181234E-13
   81.5922089        -5.43130739E-15
   81.7190018        -1.35690206E-13
   81.8457947        -2.72258561E-13
   81.9725876        -4.11362378E-13
   82.0993805        -5.48879681E-13
   82.2261734        -6.80446205E-13
   82.3529663        -8.01575006E-13
   82.4797592        -9.07787842E-13
   82.6065521        -9.94753867E-13
   82.7333450        -1.05843220E-12
   82.8601379        -1.09521485E-12
   82.9869308        -1.10206408E-12
   83.1137238        -1.07664138E-12
   83.2405167        -1.01742280E-12
   83.3673096        -9.23795328E-13
   83.4941025        -7.96132691E-13
   83.6208954        -6.35845001E-13
   83.7476883        -4.45400769E-13
   83.8744812        -2.28317690E-13
   84.0012741         1.08778267E-14
   84.1280670         2.66723357E-13
   84.2548599         5.32925646E-13
   84.3816528         8.02496036E-13
   84.5084381         1.06791344E-12
   84.6352310         1.32131220E-12
   84.7620239         1.55469138E-12
   84.8888168         1.76013804E-12
   85.0156097         1.93006050E-12
   85.1424026         2.05742519E-12
   85.2691956         2.13598909E-12
   85.3959885         2.16052263E-12
   85.5227814         2.12701341E-12
   85.6495743         2.03284763E-12
   85.7763672         1.87695887E-12
   85.9031601         1.65994063E-12
   86.0299530         1.38411776E-12
   86.1567459         1.05357162E-12
   86.2835388         6.74116741E-13
   86.4103317         2.53226937E-13
   86.5371246        -2.00088061E-13
   86.6639175        -6.75455839E-13
   86.7907104        -1.16136061E-12
   86.9175034        -1.64540408E-12
   87.0442963        -2.11460428E-12
   87.1710892        -2.55572148E-12
   87.2978821        -2.95560841E-12
   87.4246750        -3.30156930E-12
   87.5514679        -3.58172563E-12
   87.6782608        -3.78537045E-12
   87.8050537        -3.90330693E-12
   87.9318466        -3.92815901E-12
   88.0586395        -3.85464403E-12
   88.1854324        -3.67979605E-12
   88.3122177        -3.40313845E-12
   88.4390106        -3.02679214E-12
   88.5658035        -2.55551981E-12
   88.6925964        -1.99669816E-12
   88.8193893        -1.36022107E-12
   88.9461823        -6.58333251E-13
   89.0729752         9.46055029E-14
   89.1997681         8.82416644E-13
   89.3265610         1.68745454E-12
   89.4533539         2.49100762E-12
   89.5801468         3.27373567E-12
   89.7069397         4.01613161E-12
   89.8337326         4.69899857E-12
   89.9605255         5.30392830E-12
   90.0873184         5.81376787E-12
   90.2141113         6.21306132E-12
   90.3409042         6.48845344E-12
   90.4676971         6.62905191E-12
   90.5944901         6.62672348E-12
   90.7212830         6.47633509E-12
   90.8480759         6.17591612E-12
   90.9748688         5.72675197E-12
   91.1016617         5.13339848E-12
   91.2284546         4.40361896E-12
   91.3552475         3.54825349E-12
   91.4820404         2.58101461E-12
   91.6088333         1.51822587E-12
   91.7356262         3.78504465E-13
   91.8624191        -8.17598430E-13
   91.9892120        -2.04799198E-12
   92.1159973        -3.28946093E-12
   92.2427902        -4.51809640E-12
   92.3695831        -5.70972306E-12
   92.4963760        -6.84032648E-12
   92.6231689        -7.88645624E-12
   92.7499619        -8.82561385E-12
   92.8767548        -9.63661009E-12
   93.0035477        -1.02998885E-11
   93.1303406        -1.07978192E-11
   93.2571335        -1.11149570E-11
   93.3839264        -1.12382725E-11
   93.5107193        -1.11573476E-11
   93.6375122        -1.08645497E-11
   93.7643051        -1.03551820E-11
   93.8910980        -9.62761901E-12
   94.0178909        -8.68342290E-12
   94.1446838        -7.52745349E-12
   94.2714767        -6.16796588E-12
   94.3982697        -4.61669591E-12
   94.5250626        -2.88893453E-12
   94.6518555        -1.00358751E-12
   94.7786484         1.01679396E-12
   94.9054413         3.14601036E-12
   95.0322342         5.35425914E-12
   95.1590271         7.60822742E-12
   95.2858200         9.87125746E-12
   95.4126129         1.21035907E-11
   95.5394058         1.42627091E-11
   95.6661987         1.63037708E-11
   95.7929916         1.81801744E-11
   95.9197769         1.98442252E-11
   96.0465698         2.12479374E-11
   96.1733627         2.23439565E-11
   96.3001556         2.30865795E-11
   96.4269485         2.34328980E-11
   96.5537415         2.33439986E-11
   96.6805344         2.27862312E-11
   96.8073273         2.17325064E-11
   96.9341202         2.01635878E-11
   97.0609131         1.80693151E-11
   97.1877060         1.54497699E-11
   97.3144989         1.23162730E-11
   97.4412918         8.69222663E-12
   97.5680847         4.61372520E-12
   97.6948776         1.29893234E-13
   97.8216705        -4.69706652E-12
   97.9484634        -9.79216361E-12
   98.0752563        -1.50682626E-11