  -4.50000000         0.00000000    
  -4.37320757         0.00000000    
  -4.24641466         0.00000000    
  -4.11962223         0.00000000    
  -3.99282932         0.00000000    
  -3.86603665         0.00000000    
  -3.73924398         0.00000000    
  -3.61245155         0.00000000    
  -3.48565888         0.00000000    
  -3.35886621         0.00000000    
  -3.23207355         0.00000000    
  -3.10528088         0.00000000    
  -2.97848821         0.00000000    
  -2.85169554         0.00000000    
  -2.72490287         0.00000000    
  -2.59811020         0.00000000    
  -2.47131753         0.00000000    
  -2.34452486         0.00000000    
  -2.21773219         0.00000000    
  -2.09093952         0.00000000    
  -1.96414697         0.00000000    
  -1.83735430         0.00000000    
  -1.71056163         0.00000000    
  -1.58376896         0.00000000    
  -1.45697629         0.00000000    
  -1.33018374         0.00000000    
  -1.20339108         0.00000000    
  -1.07659841         0.00000000    
 -0.949805737         0.00000000    
 -0.823013067         0.00000000    
 -0.696220458         0.00000000    
 -0.569427788         0.00000000    
 -0.442635119         0.00000000    
 -0.315842479         0.00000000    
 -0.189049825         0.00000000    
  -6.22571707E-02     0.00000000    
   6.45354837E-02     0.00000000    
  0.191328138         0.00000000    
  0.318120778         0.00000000    
  0.444913447         0.00000000    
  0.571706116         0.00000000    
  0.698498726         0.00000000    
  0.825291395         0.00000000    
  0.952084064         0.00000000    
   1.07887673         0.00000000    
   1.20566940         0.00000000    
   1.33246195         0.00000000    
   1.45925462         0.00000000    
   1.58604729         0.00000000    
   1.71283996         0.00000000    
   1.83963263         0.00000000    
   1.96642530         0.00000000    
   2.09321785         0.00000000    
   2.22001052         0.00000000    
   2.34680319         0.00000000    
   2.47359586         0.00000000    
   2.60038853         0.00000000    
   2.72718120         0.00000000    
   2.85397387         0.00000000    
   2.98076653         0.00000000    
   3.10755920         0.00000000    
   3.23435187         0.00000000    
   3.36114454         0.00000000    
   3.48793697         0.00000000    
   3.61472964         0.00000000    
   3.74152231         0.00000000    
   3.86831498         0.00000000    
   3.99510765         0.00000000    
   4.12190056         0.00000000    
   4.24869299         0.00000000    
   4.37548542         0.00000000    
   4.50227833         0.00000000    
   4.62907076         0.00000000    
   4.75586367         0.00000000    
   4.88265610         0.00000000    
   5.00944901         0.00000000    
   5.13624144         0.00000000    
   5.26303434         0.00000000    
   5.38982677         0.00000000    
   5.51661968         0.00000000    
   5.64341211         0.00000000    
   5.77020502         0.00000000    
   5.89699745         0.00000000    
   6.02379036         0.00000000    
   6.15058279         0.00000000    
   6.27737522         0.00000000    
   6.40416813         0.00000000    
   6.53096056         0.00000000    
   6.65775347         0.00000000    
   6.78454590         0.00000000    
   6.91133881         0.00000000    
   7.03813124         0.00000000    
   7.16492414         0.00000000    
   7.29171658         0.00000000    
   7.41850948         0.00000000    
   7.54530191         0.00000000    
   7.67209482         0.00000000    
   7.79888725         0.00000000    
   7.92567968         0.00000000    
   8.05247211         0.00000000    
   8.17926502         0.00000000    
   8.30605793         0.00000000    
   8.43285084         0.00000000    
   8.55964279         0.00000000    
   8.68643570         0.00000000    
   8.81322861         0.00000000    
   8.94002151         0.00000000    
   9.06681347         0.00000000    
   9.19360638         0.00000000    
   9.32039928         0.00000000    
   9.44719219         0.00000000    
   9.57398415         0.00000000    
   9.70077705         0.00000000    
   9.82756996         0.00000000    
   9.95436192         0.00000000    
   10.0811548         0.00000000    
   10.2079477         0.00000000    
   10.3347406         0.00000000    
   10.4615326         0.00000000    
   10.5883255         0.00000000    
   10.7151184         0.00000000    
   10.8419113         0.00000000    
   10.9687033         0.00000000    
   11.0954962         0.00000000    
   11.2222891         0.00000000    
   11.3490820         0.00000000    
   11.4758739         0.00000000    
   11.6026669         0.00000000    
   11.7294598         0.00000000    
   11.8562517         0.00000000    
   11.9830446         0.00000000    
   12.1098375         0.00000000    
   12.2366304         0.00000000    
   12.3634224         0.00000000    
   12.4902153         0.00000000    
   12.6170082         0.00000000    
   12.7438011         0.00000000    
   12.8705931         0.00000000    
   12.9973860         0.00000000    
   13.1241789         0.00000000    
   13.2509708         0.00000000    
   13.3777637         0.00000000    
   13.5045567         0.00000000    
   13.6313496         0.00000000    
   13.7581415         0.00000000    
   13.8849344         0.00000000    
   14.0117273         0.00000000    
   14.1385202         0.00000000    
   14.2653122         0.00000000    
   14.3921051         0.00000000    
   14.5188980         0.00000000    
   14.6456909         0.00000000    
   14.7724829         0.00000000    
   14.8992758         0.00000000    
   15.0260687         0.00000000    
   15.1528606         0.00000000    
   15.2796535         0.00000000    
   15.4064465         0.00000000    
   15.5332394         0.00000000    
   15.6600313         0.00000000    
   15.7868242         0.00000000    
   15.9136171         0.00000000    
   16.0404091         0.00000000    
   16.1672020         0.00000000    
   16.2939949         0.00000000    
   16.4207878         0.00000000    
   16.5475807         0.00000000    
   16.6743736         0.00000000    
   16.8011646         0.00000000    
   16.9279575         0.00000000    
   17.0547504         0.00000000    
   17.1815434         0.00000000    
   17.3083363         0.00000000    
   17.4351292         0.00000000    
   17.5619221         0.00000000    
   17.6887150         0.00000000    
   17.8155060         0.00000000    
   17.9422989         0.00000000    
   18.0690918         0.00000000    
   18.1958847         0.00000000    
   18.3226776         0.00000000    
   18.4494705         0.00000000    
   18.5762634         0.00000000    
   18.7030544         0.00000000    
   18.8298473         0.00000000    
   18.9566402         0.00000000    
   19.0834332         0.00000000    
   19.2102261         5.37569408E-35
   19.3370190         1.07513882E-34
   19.4638119         1.61270822E-34
   19.5906048         1.06008996E-34
   19.7173958         7.02454589E-36
   19.8441887         2.47207817E-34
   19.9709816         4.86713895E-34
   20.0977745         7.78681896E-34
   20.2245674         5.88603128E-34
   20.3513603        -6.27876211E-34
   20.4781532        -2.78663738E-33
   20.6049442        -8.01019981E-33
   20.7317371        -1.49136541E-32
   20.8585300        -1.93336994E-32
   20.9853230        -2.09491666E-32
   21.1121159        -1.93388848E-32
   21.2389088        -1.06973292E-32
   21.3657017         9.89822630E-34
   21.4924946         1.46707910E-32
   21.6192856         2.73357009E-32
   21.7460785         3.60512010E-32
   21.8728714         3.72755665E-32
   21.9996643         3.61852602E-32
   22.1264572         3.15205431E-32
   22.2532501         1.92283017E-32
   22.3800430         2.94762509E-34
   22.5068340        -2.58977298E-31
   22.6336269        -4.71619947E-31
   22.7604198        -2.67279979E-31
   22.8872128         1.03301729E-30
   23.0140057         2.86070619E-30
   23.1407986         4.47274547E-30
   23.2675915         5.02550241E-30
   23.3943844         5.11291782E-30
   23.5211754         4.72685839E-30
   23.6479683         2.51645843E-30
   23.7747612        -4.09229597E-31
   23.9015541        -3.53969599E-30
   24.0283470        -1.20763346E-29
   24.1551399        -2.55712520E-29
   24.2819328        -4.30380011E-29
   24.4087238        -6.97932155E-29
   24.5355167        -9.49034300E-29
   24.6623096        -1.14493947E-28
   24.7891026        -1.31521852E-28
   24.9158955        -1.38957073E-28
   25.0426884        -1.34583804E-28
   25.1694813        -1.13784868E-28
   25.2962742        -7.76907200E-29
   25.4230652        -2.51483554E-29
   25.5498581         4.41789491E-29
   25.6766510         1.12680468E-28
   25.8034439         1.77354844E-28
   25.9302368         2.24325411E-28
   26.0570297         2.66311333E-28
   26.1838226         2.99228822E-28
   26.3106136         3.23841918E-28
   26.4374065         3.37526854E-28
   26.5641994         3.39609025E-28
   26.6909924         3.27507372E-28
   26.8177853         2.89051968E-28
   26.9445782         2.29612859E-28
   27.0713711         1.33115764E-28
   27.1981640         7.11416102E-30
   27.3249550        -1.62261379E-28
   27.4517479        -3.74049997E-28
   27.5785408        -6.37097096E-28
   27.7053337        -9.44486541E-28
   27.8321266        -1.28261224E-27
   27.9589195        -1.62658111E-27
   28.0857124        -1.93946076E-27
   28.2125034        -2.16589581E-27
   28.3392963        -2.24345936E-27
   28.4660892        -2.10521438E-27
   28.5928822        -1.68780912E-27
   28.7196751        -9.40411177E-28
   28.8464680         1.77334706E-28
   28.9732609         1.67896756E-27
   29.1000538         3.55525358E-27
   29.2268448         5.75740040E-27
   29.3536377         8.18157997E-27
   29.4804306         1.06721340E-26
   29.6072235         1.30192417E-26
   29.7340164         1.49581617E-26
   29.8608093         1.61742755E-26
   29.9876022         1.63192903E-26
   30.1143932         1.50240516E-26
   30.2411861         1.19357005E-26
   30.3679790         6.74817734E-27
   30.4947720        -7.57197317E-28
   30.6215649        -1.06613897E-26
   30.7483578        -2.28585621E-26
   30.8751507        -3.70056962E-26
   31.0019417        -5.24777638E-26
   31.1287346        -6.83359695E-26
   31.2555275        -8.33128944E-26
   31.3823204        -9.58240497E-26
   31.5091133        -1.04008537E-25
   31.6359062        -1.05805217E-25
   31.7626991        -9.90693803E-26
   31.8894920        -8.17281098E-26
   32.0162849        -5.19769912E-26
   32.1430779        -8.50696199E-27
   32.2698708         4.92450056E-26
   32.3966637         1.20834262E-25
   32.5234528         2.04554098E-25
   32.6502457         2.97209706E-25
   32.7770386         3.93947892E-25
   32.9038315         4.88170400E-25
   33.0306244         5.71565225E-25
   33.1574173         6.34284055E-25
   33.2842102         6.65290134E-25
   33.4110031         6.52896143E-25
   33.5377960         5.85501833E-25
   33.6645889         4.52526213E-25
   33.7913818         2.45513235E-25
   33.9181747        -4.06302316E-26
   34.0449677        -4.06326869E-25
   34.1717606        -8.46029852E-25
   34.2985535        -1.34704113E-24
   34.4253426        -1.88856101E-24
   34.5521355        -2.44110542E-24
   34.6789284        -2.96642565E-24
   34.8057213        -3.41806252E-24
   34.9325142        -3.74265275E-24
   35.0593071        -3.88208864E-24
   35.1861000        -3.77656509E-24
   35.3128929        -3.36851456E-24
   35.4396858        -2.60736673E-24
   35.5664787        -1.45498482E-24
   35.6932716         1.08465811E-25
   35.8200645         2.07850984E-24
   35.9468575         4.42064083E-24
   36.0736504         7.06536249E-24
   36.2004433         9.90449497E-24
   36.3272324         1.27893372E-23
   36.4540253         1.55312655E-23
   36.5808182         1.79052540E-23
   36.7076111         1.96567682E-23
   36.8344040         2.05123115E-23
   36.9611969         2.01937569E-23
   37.0879898         1.84363089E-23
   37.2147827         1.50096328E-23
   37.3415756         9.74148555E-24
   37.4683685         2.54275922E-24
   37.5951614        -6.56754432E-24
   37.7219543        -1.74389220E-23
   37.8487473        -2.97697773E-23
   37.9755402        -4.30934959E-23
   38.1023293        -5.67724135E-23
   38.2291222        -7.00020526E-23
   38.3559151        -8.18269135E-23
   38.4827080        -9.11699549E-23
   38.6095009        -9.68759814E-23
   38.7362938        -9.77695399E-23
   38.8630867        -9.27261502E-23
   38.9898796        -8.07551103E-23
   39.1166725        -6.10907706E-23
   39.2434654        -3.32882578E-23
   39.3702583         2.68191527E-24
   39.4970512         4.63465690E-23
   39.6238441         9.66566655E-23
   39.7506371         1.51935986E-22
   39.8774300         2.09858988E-22
   40.0042191         2.67465347E-22
   40.1310120         3.21216108E-22
   40.2578049         3.67097344E-22
   40.3845978         4.00772692E-22
   40.5113907         4.17784244E-22
   40.6381836         4.13799575E-22
   40.7649765         3.84896444E-22
   40.8917694         3.27875255E-22
   41.0185623         2.40585032E-22
   41.1453552         1.22245205E-22
   41.2721481        -2.62572857E-23
   41.3989410        -2.02118167E-22
   41.5257339        -4.00435943E-22
   41.6525269        -6.14125413E-22
   41.7793198        -8.33944924E-22
   41.9061089        -1.04865883E-21
   42.0329018        -1.24533818E-21
   42.1596947        -1.40981657E-21
   42.2864876        -1.52729297E-21
   42.4132805        -1.58306415E-21
   42.5400734        -1.56337772E-21
   42.6668663        -1.45636103E-21
   42.7936592        -1.25298839E-21
   42.9204521        -9.48038243E-22
   43.0472450        -5.40977029E-22
   43.1740379        -3.67127535E-23
   43.3008308         5.53851744E-22
   43.4276237         1.21351748E-21
   43.5544167         1.91880214E-21
   43.6812096         2.64030720E-21
   43.8079987         3.34346404E-21
   43.9347916         3.98967142E-21
   44.0615845         4.53781712E-21
   44.1883774         4.94612486E-21
   44.3151703         5.17428696E-21
   44.4419632         5.18577863E-21
   44.5687561         4.95025026E-21
   44.6955490         4.44586315E-21
   44.8223419         3.66143986E-21
   44.9491348         2.59825529E-21
   45.0759277         1.27135732E-21
   45.2027206        -2.89731798E-22
   45.3295135        -2.04102696E-21
   45.4563065        -3.92490254E-21
   45.5830994        -5.87171654E-21
   45.7098885        -7.80225915E-21
   45.8366814        -9.63091153E-21
   45.9634743        -1.12694303E-20
   46.0902672        -1.26311287E-20
   46.2170601        -1.36352921E-20
   46.3438530        -1.42114686E-20
   46.4706459        -1.43034521E-20
   46.5974388        -1.38725556E-20
   46.7242317        -1.29000198E-20
   46.8510246        -1.13882034E-20
   46.9778175        -9.36047517E-21
   47.1046104        -6.85965695E-21
   47.2314034        -3.94505820E-21
   47.3581963        -6.88267130E-22
   47.4849892         2.83218019E-21
   47.6117783         6.53659567E-21
   47.7385712         1.03502049E-20
   47.8653641         1.42087011E-20
   47.9921570         1.80626874E-20
   48.1189499         2.18804749E-20
   48.2457428         2.56483618E-20
   48.3725357         2.93680395E-20
   48.4993286         3.30508124E-20
   48.6261215         3.67083498E-20
   48.7529144         4.03402188E-20
   48.8797073         4.39185989E-20
   49.0065002         4.73710149E-20
   49.1332932         5.05624005E-20
   49.2600861         5.32778405E-20
   49.3868790         5.52077272E-20
   49.5136681         5.59379985E-20
   49.6404610         5.49470038E-20
   49.7672539         5.16113527E-20
   49.8940468         4.52229205E-20
   50.0208397         3.50184909E-20
   50.1476326         2.02232202E-20
   50.2744255         1.07927784E-22
   50.4012184        -2.59402758E-20
   50.5280113        -5.83357753E-20
   50.6548042        -9.72037839E-20
   50.7815971        -1.42285857E-19
   50.9083900        -1.92846471E-19
   51.0351830        -2.47588134E-19
   51.1619759        -3.04582739E-19
   51.2887688        -3.61227085E-19
   51.4155579        -4.14231656E-19
   51.5423508        -4.59650721E-19
   51.6691437        -4.92962267E-19
   51.7959366        -5.09201373E-19
   51.9227295        -5.03154424E-19
   52.0495224        -4.69611217E-19
   52.1763153        -4.03676133E-19
   52.3031082        -3.01128278E-19
   52.4299011        -1.58822193E-19
   52.5566940         2.48869889E-20
   52.6834869         2.49714660E-19
   52.8102798         5.13038509E-19
   52.9370728         8.09538246E-19
   53.0638657         1.13091420E-18
   53.1906586         1.46571659E-18
   53.3174477         1.79931801E-18
   53.4442406         2.11405568E-18
   53.5710335         2.38957631E-18
   53.6978264         2.60339009E-18
   53.8246193         2.73165706E-18
   53.9514122         2.75019707E-18
   54.0782051         2.63571528E-18
   54.2049980         2.36720955E-18
   54.3317909         1.92752356E-18
   54.4585838         1.30498774E-18
   54.5853767         4.95070699E-19
   54.7121696        -4.98042552E-19
   54.8389626        -1.66003858E-18
   54.9657555        -2.96534448E-18
   55.0925484        -4.37637191E-18
   55.2193375        -5.84325844E-18
   55.3461304        -7.30419258E-18
   55.4729233        -8.68640476E-18
   55.5997162        -9.90791065E-18
   55.7265091        -1.08800001E-17
   55.8533020        -1.15105226E-17
   55.9800949        -1.17078805E-17
   56.1068878        -1.13856895E-17
   56.2336807        -1.04679491E-17
   56.3604736        -8.89454822E-18
   56.4872665        -6.62691281E-18
   56.6140594        -3.65347851E-18
   56.7408524         5.25280247E-21
   56.8676453         4.29244079E-18
   56.9944382         9.11172532E-18
   57.1212273         1.43254530E-17
   57.2480202         1.97546926E-17
   57.3748131         2.51812059E-17
   57.5016060         3.03516489E-17
   57.6283989         3.49841482E-17
   57.7551918         3.87772279E-17
   57.8819847         4.14210758E-17
   58.0087776         4.26108924E-17
   58.1355705         4.20620514E-17
   58.2623634         3.95265576E-17
   58.3891563         3.48102186E-17
   58.5159492         2.77898010E-17
   58.6427422         1.84294103E-17
   58.7695351         6.79508318E-18
   58.8963280        -6.93319463E-18
   59.0231171        -2.24531477E-17
   59.1499100        -3.93363358E-17
   59.2767029        -5.70295769E-17
   59.4034958        -7.48624196E-17
   59.5302887        -9.20610332E-17
   59.6570816        -1.07768796E-16
   59.7838745        -1.21073645E-16
   59.9106674        -1.31041609E-16
   60.0374603        -1.36756024E-16
   60.1642532        -1.37361242E-16
   60.2910461        -1.32109545E-16
   60.4178391        -1.20409294E-16
   60.5446320        -1.01872606E-16
   60.6714249        -7.63600268E-17
   60.7982178        -4.40199383E-17
   60.9250069        -5.32011758E-18
   61.0517998         3.89308552E-17
   61.1785927         8.75747960E-17
   61.3053856         1.39109491E-16
   61.4321785         1.91710343E-16
   61.5589714         2.43269054E-16
   61.6857643         2.91449876E-16
   61.8125572         3.33762718E-16
   61.9393501         3.67652454E-16
   62.0661430         3.90601620E-16
   62.1929359         4.00244561E-16
   62.3197289         3.94488363E-16
   62.4465218         3.71636764E-16
   62.5733147         3.30511435E-16
   62.7001076         2.70565034E-16
   62.8268967         1.91980560E-16
   62.9536896         9.57502587E-17
   63.0804825        -1.62709570E-17
   63.2072754        -1.41343435E-16
   63.3340683        -2.75856211E-16
   63.4608612        -4.15379293E-16
   63.5876541        -5.54757558E-16
   63.7144470        -6.88245610E-16
   63.8412399        -8.09683929E-16
   63.9680328        -9.12711247E-16
   64.0948257        -9.91009914E-16
   64.2216187        -1.03857558E-15
   64.3484116        -1.05000322E-15
   64.4752045        -1.02077857E-15
   64.6019974        -9.47563053E-16
   64.7287903        -8.28459738E-16
   64.8555832        -6.63245803E-16
   64.9823761        -4.53559356E-16
   65.1091690        -2.03027590E-16
   65.2359619         8.26759677E-17
   65.3627548         3.95853463E-16
   65.4895477         7.26892388E-16
   65.6163330         1.06446578E-15
   65.7431259         1.39582475E-15
   65.8699188         1.70717892E-15
   65.9967117         1.98415710E-15
   66.1235046         2.21233931E-15
   66.2502975         2.37784065E-15
   66.3770905         2.46793002E-15
   66.5038834         2.47166035E-15
   66.6306763         2.38048424E-15
   66.7574692         2.18882970E-15
   66.8842621         1.89460518E-15
   67.0110550         1.49960873E-15
   67.1378479         1.00981468E-15
   67.2646408         4.35513742E-16
   67.3914337        -2.08711565E-16
   67.5182266        -9.04190201E-16
   67.6450195        -1.62855171E-15
   67.7718124        -2.35630188E-15
   67.8986053        -3.05957724E-15
   68.0253983        -3.70906114E-15
   68.1521912        -4.27504178E-15
   68.2789841        -4.72856990E-15
   68.4057770        -5.04268953E-15
   68.5325699        -5.19368882E-15
   68.6593628        -5.16232065E-15
   68.7861557        -4.93494143E-15
   68.9129486        -4.50451486E-15
   69.0397415        -3.87142422E-15
   69.1665344        -3.04404922E-15
   69.2933273        -2.03905712E-15
   69.4201126        -8.81380821E-16
   69.5469055         3.96147277E-16
   69.6736984         1.75350929E-15
   69.8004913         3.14457276E-15
   69.9272842         4.51848836E-15
   70.0540771         5.82138936E-15
   70.1808701         6.99834884E-15
   70.3076630         7.99551753E-15
   70.4344559         8.76238304E-15
   70.5612488         9.25405094E-15
   70.6880417         9.43347031E-15
   70.8148346         9.27348272E-15
   70.9416275         8.75861714E-15
   71.0684204         7.88652387E-15
   71.1952133         6.66896526E-15
   71.3220062         5.13228486E-15
   71.4487991         3.31730289E-15
   71.5755920         1.27859210E-15
   71.7023849        -9.16867002E-16
   71.8291779        -3.19165487E-15
   71.9559708        -5.46045634E-15
   72.0827637        -7.63311448E-15
   72.2095566        -9.61808961E-15
   72.3363495        -1.13262256E-14
   72.4631424        -1.26746749E-14
   72.5899353        -1.35907995E-14
   72.7167282        -1.40159262E-14
   72.8435211        -1.39087282E-14
   72.9703140        -1.32481111E-14
   73.0971069        -1.20354031E-14
   73.2238922        -1.02957177E-14
   73.3506851        -8.07836921E-15
   73.4774780        -5.45627030E-15
   73.6042709        -2.52422700E-15
   73.7310638         6.03837665E-16
   73.8578568         3.79871703E-15
   73.9846497         6.92068905E-15
   74.1114426         9.82510107E-15
   74.2382355         1.23685835E-14
   74.3650284         1.44156571E-14
   74.4918213         1.58454555E-14
   74.6186142         1.65583100E-14
   74.7454071         1.64818500E-14
   74.8722000         1.55763531E-14
   74.9989929         1.38389785E-14
   75.1257858         1.13067074E-14
   75.2525787         8.05766603E-15
   75.3793716         4.21068930E-15
   75.5061646        -7.70091121E-17
   75.6329575        -4.61411288E-15
   75.7597504        -9.18137128E-15
   75.8865433        -1.35395701E-14
   76.0133362        -1.74390701E-14
   76.1401291        -2.06306716E-14
   76.2669220        -2.28773214E-14
   76.3937149        -2.39663653E-14
   76.5205078        -2.37217167E-14
   76.6473007        -2.20154773E-14
   76.7740936        -1.87783816E-14
   76.9008865        -1.40086188E-14
   77.0276718        -7.77837132E-15
   77.1544647        -2.37638402E-16
   77.2812576         8.38500446E-15
   77.4080505         1.77851101E-14
   77.5348434         2.75886068E-14
   77.6616364         3.73617424E-14
   77.7884293         4.66245661E-14
   77.9152222         5.48675959E-14
   78.0420151         6.15714687E-14
   78.1688080         6.62287201E-14
   78.2956009         6.83671869E-14
   78.4223938         6.75740795E-14
   78.5491867         6.35197393E-14
   78.6759796         5.59801873E-14
   78.8027725         4.48572996E-14
   78.9295654         3.01956133E-14
   79.0563583         1.21947503E-14
   79.1831512        -8.78336151E-15
   79.3099442        -3.22132898E-14
   79.4367371        -5.74115137E-14
   79.5635300        -8.35486736E-14
   79.6903229        -1.09668920E-13
   79.8171158        -1.34716023E-13
   79.9439087        -1.57565841E-13
   80.0707016        -1.77064526E-13
   80.1974945        -1.92071050E-13
   80.3242874        -2.01503297E-13
   80.4510803        -2.04385621E-13
   80.5778732        -1.99896658E-13
   80.7046585        -1.87415079E-13
   80.8314514        -1.66561602E-13
   80.9582443        -1.37235546E-13
   81.0850372        -9.96434922E-14
   81.2118301        -5.43189896E-14
   81.3386230        -2.13139599E-15
   81.4654160         5.57171192E-14
   81.5922089         1.17707236E-13
   81.7190018         1.82031229E-13
   81.8457947         2.46634527E-13
   81.9725876         3.09269889E-13
   82.0993805         3.67562588E-13
   82.2261734         4.19085475E-13
   82.3529663         4.61441432E-13
   82.4797592         4.92351114E-13
   82.6065521         5.09743018E-13
   82.7333450         5.11842250E-13
   82.8601379         4.97255991E-13
   82.9869308         4.65050307E-13
   83.1137238         4.14817323E-13
   83.2405167         3.46727719E-13
   83.3673096         2.61566674E-13
   83.4941025         1.60750997E-13
   83.6208954         4.63250010E-14
   83.7476883        -7.90653282E-14
   83.8744812        -2.12220934E-13
   84.0012741        -3.49460234E-13
   84.1280670        -4.86710769E-13
   84.2548599        -6.19619753E-13
   84.3816528        -7.43681104E-13
   84.5084381        -8.54374622E-13
   84.6352310        -9.47314384E-13
   84.7620239        -1.01840053E-12
   84.8888168        -1.06397063E-12
   85.0156097        -1.08094360E-12
   85.1424026        -1.06695306E-12
   85.2691956        -1.02046279E-12
   85.3959885        -9.40861213E-13
   85.5227814        -8.28529899E-13
   85.6495743        -6.84882110E-13
   85.7763672        -5.12369661E-13
   85.9031601        -3.14455791E-13
   86.0299530        -9.55536987E-14
   86.1567459         1.39068756E-13
   86.2835388         3.83416091E-13
   86.4103317         6.30921259E-13
   86.5371246         8.74626380E-13
   86.6639175         1.10738296E-12
   86.7907104         1.32206572E-12
   86.9175034         1.51179264E-12
   87.0442963         1.67014568E-12
   87.1710892         1.79138182E-12
   87.2978821         1.87063039E-12
   87.4246750         1.90406740E-12
   87.5514679         1.88905987E-12
   87.6782608         1.82427771E-12
   87.8050537         1.70976352E-12
   87.9318466         1.54696362E-12
   88.0586395         1.33871039E-12
   88.1854324         1.08916283E-12
   88.3122177         8.03702753E-13
   88.4390106         4.88789076E-13
   88.5658035         1.51778519E-13
   88.6925964        -1.99287134E-13
   88.8193893        -5.55915123E-13
   88.9461823        -9.09412357E-13
   89.0729752        -1.25114155E-12
   89.1997681        -1.57277576E-12
   89.3265610        -1.86654056E-12
   89.4533539        -2.12543589E-12
   89.5801468        -2.34342927E-12
   89.7069397        -2.51561337E-12
   89.8337326        -2.63831882E-12
   89.9605255        -2.70918617E-12
   90.0873184        -2.72718458E-12
   90.2141113        -2.69258400E-12
   90.3409042        -2.60687934E-12
   90.4676971        -2.47267051E-12
   90.5944901        -2.29350566E-12
   90.7212830        -2.07369148E-12
   90.8480759        -1.81808399E-12
   90.9748688        -1.53186513E-12
   91.1016617        -1.22032050E-12
   91.2284546        -8.88624732E-13
   91.3552475        -5.41649624E-13
   91.4820404        -1.83802843E-13
   91.6088333         1.81093056E-13
   91.7356262         5.49874274E-13
   91.8624191         9.20055590E-13
   91.9892120         1.28979347E-12
   92.1159973         1.65779402E-12
   92.2427902         2.02316722E-12
   92.3695831         2.38523003E-12
   92.4963760         2.74327197E-12
   92.6231689         3.09629145E-12
   92.7499619         3.44271551E-12
   92.8767548         3.78012075E-12
   93.0035477         4.10496810E-12
   93.1303406         4.41237324E-12
   93.2571335         4.69592811E-12
   93.3839264         4.94758878E-12
   93.5107193         5.15764688E-12
   93.6375122         5.31479505E-12
   93.7643051         5.40629694E-12
   93.8910980         5.41826696E-12
   94.0178909         5.33606189E-12
   94.1446838         5.14477697E-12
   94.2714767         4.82984442E-12
   94.3982697         4.37771390E-12
   94.5250626         3.77659579E-12
   94.6518555         3.01725311E-12
   94.7786484         2.09379931E-12
   94.9054413         1.00448436E-12
   95.0322342        -2.47577458E-13
   95.1590271        -1.65375732E-12
   95.2858200        -3.19939127E-12
   95.4126129        -4.86341349E-12
   95.5394058        -6.61817432E-12
   95.6661987        -8.42947587E-12
   95.7929916        -1.02568440E-11
   95.9197769        -1.20540444E-11
   96.0465698        -1.37698637E-11
   96.1733627        -1.53491508E-11
   96.3001556        -1.67340950E-11
   96.4269485        -1.78657297E-11
   96.5537415        -1.86856381E-11
   96.6805344        -1.91378077E-11
   96.8073273        -1.91705922E-11
   96.9341202        -1.87387258E-11
   97.0609131        -1.78053232E-11
   97.1877060        -1.63438030E-11
   97.3144989        -1.43396640E-11
   97.4412918        -1.17920370E-11
   97.5680847        -8.71495931E-12
   97.6948776        -5.13829604E-12
   97.8216705        -1.10826235E-12
   97.9484634         3.31251498E-12
   98.0752563         8.04541243E-12