  -4.50000000         0.00000000    
  -4.37320757         0.00000000    
  -4.24641466         0.00000000    
  -4.11962223         0.00000000    
  -3.99282932         0.00000000    
  -3.86603665         0.00000000    
  -3.73924398         1.56340866E-32
  -3.61245155         1.73051271E-31
  -3.48565888         3.44715764E-31
  -3.35886621        -5.34902498E-31
  -3.23207355        -8.07419949E-30
  -3.10528088        -4.85249304E-29
  -2.97848821        -1.89097083E-28
  -2.85169554        -4.46617810E-28
  -2.72490287        -5.99587829E-28
  -2.59811020         1.94943098E-28
  -2.47131753         3.60707573E-27
  -2.34452486         1.14060720E-26
  -2.21773219         2.27763896E-26
  -2.09093952         2.94536965E-26
  -1.96414697         1.11305470E-26
  -1.83735430        -6.19378639E-26
  -1.71056163        -2.08079172E-25
  -1.58376896        -3.85316176E-25
  -1.45697629        -4.17972527E-25
  -1.33018374         6.81056407E-26
  -1.20339108         1.62754873E-24
  -1.07659841         4.78836400E-24
 -0.949805737         9.56278094E-24
 -0.823013067         1.46842071E-23
 -0.696220458         1.67903758E-23
 -0.569427788         1.00652751E-23
 -0.442635119        -1.28869935E-23
 -0.315842479        -5.81311349E-23
 -0.189049825        -1.25078150E-22
  -6.22571707E-02    -1.99439890E-22
   6.45354837E-02    -2.46799665E-22
  0.191328138        -2.10978539E-22
  0.318120778        -2.25892135E-23
  0.444913447         3.77373513E-22
  0.571706116         9.97468040E-22
  0.698498726         1.74463620E-21
  0.825291395         2.37678555E-21
  0.952084064         2.48368148E-21
   1.07887673         1.52636250E-21
   1.20566940        -1.03835047E-21
   1.33246195        -5.53909098E-21
   1.45925462        -1.18003607E-20
   1.58604729        -1.88490018E-20
   1.71283996        -2.47266855E-20
   1.83963263        -2.65439577E-20
   1.96642530        -2.08995324E-20
   2.09321785        -4.72414803E-21
   2.22001052         2.35115652E-20
   2.34680319         6.24449501E-20
   2.47359586         1.06704851E-19
   2.60038853         1.46516421E-19
   2.72718120         1.68502352E-19
   2.85397387         1.57985151E-19
   2.98076653         1.02751555E-19
   3.10755920        -2.22918632E-21
   3.23435187        -1.50136241E-19
   3.36114454        -3.19053463E-19
   3.48793697        -4.71618474E-19
   3.61472964        -5.58719352E-19
   3.74152231        -5.27642848E-19
   3.86831498        -3.33981074E-19
   3.99510765         4.46239771E-20
   4.12190056         5.95844613E-19
   4.24869299         1.26457873E-18
   4.37548542         1.95254122E-18
   4.50227833         2.52747538E-18
   4.62907076         2.84201577E-18
   4.75586367         2.75998551E-18
   4.88265610         2.18588619E-18
   5.00944901         1.09204995E-18
   5.13624144        -4.62193940E-19
   5.26303434        -2.32395338E-18
   5.38982677        -4.25538599E-18
   5.51661968        -5.95764346E-18
   5.64341211        -7.10804820E-18
   5.77020502        -7.40673237E-18
   5.89699745        -6.62806590E-18
   6.02379036        -4.67172461E-18
   6.15058279        -1.60781908E-18
   6.27737522         2.29031464E-18
   6.40416813         6.53326687E-18
   6.53096056         1.04311553E-17
   6.65775347         1.31456511E-17
   6.78454590         1.37831087E-17
   6.91133881         1.15264872E-17
   7.03813124         5.79358790E-18
   7.16492414        -3.60244767E-18
   7.29171658        -1.63237377E-17
   7.41850948        -3.14458202E-17
   7.54530191        -4.74928991E-17
   7.67209482        -6.25820301E-17
   7.79888725        -7.46612228E-17
   7.92567968        -8.17972504E-17
   8.05247211        -8.24455086E-17
   8.17926502        -7.56267279E-17
   8.30605793        -6.09497645E-17
   8.43285084        -3.84583828E-17
   8.55964279        -8.33598707E-18
   8.68643570         2.94365985E-17
   8.81322861         7.53286848E-17
   8.94002151         1.30256131E-16
   9.06681347         1.95202104E-16
   9.19360638         2.70419239E-16
   9.32039928         3.54293712E-16
   9.44719219         4.42090477E-16
   9.57398415         5.24924158E-16
   9.70077705         5.89370236E-16
   9.82756996         6.18118482E-16
   9.95436192         5.91948075E-16
   10.0811548         4.93084401E-16
   10.2079477         3.09690122E-16
   10.3347406         4.09087995E-17
   10.4615326        -2.98427124E-16
   10.5883255        -6.74515100E-16
   10.7151184        -1.03385644E-15
   10.8419113        -1.30603756E-15
   10.9687033        -1.41057424E-15
   11.0954962        -1.26776618E-15
   11.2222891        -8.12800217E-16
   11.3490820        -1.15707852E-17
   11.4758739         1.12393659E-15
   11.6026669         2.52326689E-15
   11.7294598         4.05073475E-15
   11.8562517         5.50654256E-15
   11.9830446         6.63724175E-15
   12.1098375         7.15591391E-15
   12.2366304         6.77108905E-15
   12.3634224         5.22212414E-15
   12.4902153         2.31763122E-15
   12.6170082        -2.02723847E-15
   12.7438011        -7.75898612E-15
   12.8705931        -1.46634888E-14
   12.9973860        -2.23563742E-14
   13.1241789        -3.02879466E-14
   13.2509708        -3.77631649E-14
   13.3777637        -4.39757449E-14
   13.5045567        -4.80545440E-14
   13.6313496        -4.91195931E-14
   13.7581415        -4.63449977E-14
   13.8849344        -3.90261520E-14
   14.0117273        -2.66489118E-14
   14.1385202        -8.95851183E-15
   14.2653122         1.39736059E-14
   14.3921051         4.16885019E-14
   14.5188980         7.32877504E-14
   14.6456909         1.07396879E-13
   14.7724829         1.42152186E-13
   14.8992758         1.75219987E-13
   15.0260687         2.03858699E-13
   15.1528606         2.25032287E-13
   15.2796535         2.35582007E-13
   15.4064465         2.32455792E-13
   15.5332394         2.12991503E-13
   15.6600313         1.75236372E-13
   15.7868242         1.18280128E-13
   15.9136171         4.25699616E-14
   16.0404091        -4.98338451E-14
   16.1672020        -1.55099756E-13
   16.2939949        -2.67605952E-13
   16.4207878        -3.80090165E-13
   16.5475807        -4.83989205E-13
   16.6743736        -5.69969365E-13
   16.8011646        -6.28631424E-13
   16.9279575        -6.51352344E-13
   17.0547504        -6.31207218E-13
   17.1815434        -5.63897019E-13
   17.3083363        -4.48601144E-13
   17.4351292        -2.88662405E-13
   17.5619221        -9.20185694E-14
   17.6887150         1.28701181E-13
   17.8155060         3.56479793E-13
   17.9422989         5.70663417E-13
   18.0690918         7.48178863E-13
   18.1958847         8.65207049E-13
   18.3226776         8.99262815E-13
   18.4494705         8.31586753E-13
   18.5762634         6.49714169E-13
   18.7030544         3.50028898E-13
   18.8298473        -5.99250060E-14
   18.9566402        -5.59641960E-13
   19.0834332        -1.11464299E-12
   19.2102261        -1.67653435E-12
   19.3370190        -2.18436272E-12
   19.4638119        -2.56744539E-12
   19.5906048        -2.74971929E-12
   19.7173958        -2.65554224E-12
   19.8441887        -2.21671184E-12
   19.9709816        -1.38031904E-12
   20.0977745        -1.16895453E-13
   20.2245674         1.57179814E-12
   20.3513603         3.64607476E-12
   20.4781532         6.02346818E-12
   20.6049442         8.57646246E-12
   20.7317371         1.11333893E-11
   20.8585300         1.34830419E-11
   20.9853230         1.53831496E-11
   21.1121159         1.65728889E-11
   21.2389088         1.67890476E-11
   21.3657017         1.57853418E-11
   21.4924946         1.33541286E-11
   21.6192856         9.34922625E-12
   21.7460785         3.70857555E-12
   21.8728714        -3.52490541E-12
   21.9996643        -1.21860924E-11
   22.1264572        -2.19758673E-11
   22.2532501        -3.24565791E-11
   22.3800430        -4.30563953E-11
   22.5068340        -5.30838117E-11
   22.6336269        -6.17531304E-11
   22.7604198        -6.82210469E-11
   22.8872128        -7.16336157E-11
   23.0140057        -7.11821366E-11
   23.1407986        -6.61656771E-11
   23.2675915        -5.60562256E-11
   23.3943844        -4.05635144E-11
   23.5211754        -1.96938108E-11
   23.6479683         6.20155099E-12
   23.7747612         3.63931316E-11
   23.9015541         6.97602462E-11
   24.0283470         1.04801424E-10
   24.1551399         1.39671080E-10
   24.2819328         1.72243692E-10
   24.4087238         2.00204700E-10
   24.5355167         2.21165974E-10
   24.6623096         2.32802111E-10
   24.7891026         2.32999703E-10
   24.9158955         2.20015312E-10
   25.0426884         1.92629065E-10
   25.1694813         1.50287824E-10
   25.2962742         9.32254621E-11
   25.4230652         2.25517140E-11
   25.5498581        -5.97002794E-11
   25.6766510        -1.50574428E-10
   25.8034439        -2.46245635E-10
   25.9302368        -3.42130491E-10
   26.0570297        -4.33053426E-10
   26.1838226        -5.13466381E-10
   26.3106136        -5.77712711E-10
   26.4374065        -6.20327234E-10
   26.5641994        -6.36359410E-10
   26.6909924        -6.21700524E-10
   26.8177853        -5.73402437E-10
   26.9445782        -4.89964347E-10
   27.0713711        -3.71573883E-10
   27.1981640        -2.20276991E-10
   27.3249550        -4.00680426E-11
   27.4517479         1.63116201E-10
   27.5785408         3.81511212E-10
   27.7053337         6.05748340E-10
   27.8321266         8.25188418E-10
   27.9589195         1.02835895E-09
   28.0857124         1.20348009E-09
   28.2125034         1.33906097E-09
   28.3392963         1.42453938E-09
   28.4660892         1.45093426E-09
   28.5928822         1.41147416E-09
   28.7196751         1.30216626E-09
   28.8464680         1.12226617E-09
   28.9732609         8.74607275E-10
   29.1000538         5.65769931E-10
   29.2268448         2.06047179E-10
   29.3536377        -1.90798932E-10
   29.4804306        -6.07994211E-10
   29.6072235        -1.02642905E-09
   29.7340164        -1.42551948E-09
   29.8608093        -1.78422943E-09
   29.9876022        -2.08220508E-09
   30.1143932        -2.30096386E-09
   30.2411861        -2.42506859E-09
   30.3679790        -2.44322118E-09
   30.4947720        -2.34920128E-09
   30.6215649        -2.14257168E-09
   30.7483578        -1.82910986E-09
   30.8751507        -1.42089251E-09
   31.0019417        -9.36008604E-10
   31.1287346        -3.97910843E-10
   31.2555275         1.65634520E-10
   31.3823204         7.23904658E-10
   31.5091133         1.24488064E-09
   31.6359062         1.69709635E-09
   31.7626991         2.05158091E-09
   31.8894920         2.28382091E-09
   32.0162849         2.37555842E-09
   32.1430779         2.31636643E-09
   32.2698708         2.10485118E-09
   32.3966637         1.74939774E-09
   32.5234528         1.26837141E-09
   32.6502457         6.89737600E-10
   32.7770386         5.00633215E-11
   32.9038315        -6.07053963E-10
   33.0306244        -1.23311705E-09
   33.1574173        -1.77728821E-09
   33.2842102        -2.18928564E-09
   33.4110031        -2.42245446E-09
   33.5377960        -2.43686826E-09
   33.6645889        -2.20227081E-09
   33.7913818        -1.70066516E-09
   33.9181747        -9.28434718E-10
   34.0449677         1.02197563E-10
   34.1717606         1.36244849E-09
   34.2985535         2.80712675E-09
   34.4253426         4.37561454E-09
   34.5521355         5.99376815E-09
   34.6789284         7.57659357E-09
   34.8057213         9.03165986E-09
   34.9325142         1.02631139E-08
   35.0593071         1.11760459E-08
   35.1861000         1.16811130E-08
   35.3128929         1.16991208E-08
   35.4396858         1.11653913E-08
   35.5664787         1.00336823E-08
   35.6932716         8.27945001E-09
   35.8200645         5.90230798E-09
   35.9468575         2.92755020E-09
   36.0736504        -5.93397109E-10
   36.2004433        -4.58356508E-09
   36.3272324        -8.94217145E-09
   36.4540253        -1.35473011E-08
   36.5808182        -1.82595628E-08
   36.7076111        -2.29265051E-08
   36.8344040        -2.73876175E-08
   36.9611969        -3.14798072E-08
   37.0879898        -3.50430227E-08
   37.2147827        -3.79258509E-08
   37.3415756        -3.99908799E-08
   37.4683685        -4.11196801E-08
   37.5951614        -4.12171239E-08
   37.7219543        -4.02149922E-08
   37.8487473        -3.80746314E-08
   37.9755402        -3.47888189E-08
   38.1023293        -3.03825232E-08
   38.2291222        -2.49127439E-08
   38.3559151        -1.84673947E-08
   38.4827080        -1.11633183E-08
   38.6095009        -3.14348259E-09
   38.7362938         5.42645573E-09
   38.8630867         1.43621879E-08
   38.9898796         2.34651676E-08
   39.1166725         3.25273568E-08
   39.2434654         4.13361185E-08
   39.3702583         4.96790982E-08
   39.4970512         5.73490766E-08
   39.6238441         6.41486793E-08
   39.7506371         6.98946891E-08
   39.8774300         7.44222177E-08
   40.0042191         7.75883038E-08
   40.1310120         7.92752388E-08
   40.2578049         7.93934873E-08
   40.3845978         7.78839251E-08
   40.5113907         7.47198783E-08
   40.6381836         6.99083884E-08
   40.7649765         6.34912141E-08
   40.8917694         5.55450619E-08
   41.0185623         4.61814125E-08
   41.1453552         3.55455150E-08
   41.2721481         2.38147493E-08
   41.3989410         1.11961969E-08
   41.5257339        -2.07680495E-09
   41.6525269        -1.57489790E-08
   41.7793198        -2.95486142E-08
   41.9061089        -4.31941700E-08
   42.0329018        -5.64021789E-08
   42.1596947        -6.88963766E-08
   42.2864876        -8.04180615E-08
   42.4132805        -9.07377355E-08
   42.5400734        -9.96678082E-08
   42.6668663        -1.07076190E-07
   42.7936592        -1.12900857E-07
   42.9204521        -1.17164731E-07
   43.0472450        -1.19990801E-07
   43.1740379        -1.21617020E-07
   43.3008308        -1.22410967E-07
   43.4276237        -1.22883151E-07
   43.5544167        -1.23699053E-07
   43.6812096        -1.25689525E-07
   43.8079987        -1.29858464E-07
   43.9347916        -1.37388341E-07
   44.0615845        -1.49641849E-07
   44.1883774        -1.68160710E-07
   44.3151703        -1.94660174E-07
   44.4419632        -2.31019285E-07
   44.5687561        -2.79266828E-07
   44.6955490        -3.41562753E-07
   44.8223419        -4.20174644E-07
   44.9491348        -5.17449564E-07
   45.0759277        -6.35779998E-07
   45.2027206        -7.77567550E-07
   45.3295135        -9.45180147E-07
   45.4563065        -1.14090562E-06
   45.5830994        -1.36690198E-06
   45.7098885        -1.62514573E-06
   45.8366814        -1.91737718E-06
   45.9634743        -2.24504356E-06
   46.0902672        -2.60924617E-06
   46.2170601        -3.01068098E-06
   46.3438530        -3.44959403E-06
   46.4706459        -3.92572611E-06
   46.5974388        -4.43827639E-06
   46.7242317        -4.98586587E-06
   46.8510246        -5.56651321E-06
   46.9778175        -6.17761634E-06
   47.1046104        -6.81595475E-06
   47.2314034        -7.47769627E-06
   47.3581963        -8.15842304E-06
   47.4849892        -8.85317422E-06
   47.6117783        -9.55650012E-06
   47.7385712        -1.02625399E-05
   47.8653641        -1.09651046E-05
   47.9921570        -1.16577730E-05
   48.1189499        -1.23340269E-05
   48.2457428        -1.29873515E-05
   48.3725357        -1.36113858E-05
   48.4993286        -1.42000717E-05
   48.6261215        -1.47477722E-05
   48.7529144        -1.52494258E-05
   48.8797073        -1.57006834E-05
   49.0065002        -1.60980271E-05
   49.1332932        -1.64388912E-05
   49.2600861        -1.67217331E-05
   49.3868790        -1.69461400E-05
   49.5136681        -1.71128540E-05
   49.6404610        -1.72237997E-05
   49.7672539        -1.72820855E-05
   49.8940468        -1.72919626E-05
   50.0208397        -1.72587497E-05
   50.1476326        -1.71887623E-05
   50.2744255        -1.70891617E-05
   50.4012184        -1.69678333E-05
   50.5280113        -1.68332008E-05
   50.6548042        -1.66940463E-05
   50.7815971        -1.65593101E-05
   50.9083900        -1.64378853E-05
   51.0351830        -1.63383957E-05
   51.1619759        -1.62690158E-05
   51.2887688        -1.62372362E-05
   51.4155579        -1.62497308E-05
   51.5423508        -1.63121440E-05
   51.6691437        -1.64289868E-05
   51.7959366        -1.66035206E-05
   51.9227295        -1.68376719E-05
   52.0495224        -1.71319862E-05
   52.1763153        -1.74856214E-05
   52.3031082        -1.78963692E-05
   52.4299011        -1.83607062E-05
   52.5566940        -1.88738923E-05
   52.6834869        -1.94300610E-05
   52.8102798        -2.00223676E-05
   52.9370728        -2.06431559E-05
   53.0638657        -2.12841205E-05
   53.1906586        -2.19364865E-05
   53.3174477        -2.25912081E-05
   53.4442406        -2.32391558E-05
   53.5710335        -2.38712983E-05
   53.6978264        -2.44788826E-05
   53.8246193        -2.50535995E-05
   53.9514122        -2.55877276E-05
   54.0782051        -2.60742891E-05
   54.2049980        -2.65071376E-05
   54.3317909        -2.68810727E-05
   54.4585838        -2.71918998E-05
   54.5853767        -2.74364993E-05
   54.7121696        -2.76128467E-05
   54.8389626        -2.77200324E-05
   54.9657555        -2.77582749E-05
   55.0925484        -2.77288782E-05
   55.2193375        -2.76342034E-05
   55.3461304        -2.74776448E-05
   55.4729233        -2.72635534E-05
   55.5997162        -2.69971624E-05
   55.7265091        -2.66845236E-05
   55.8533020        -2.63324091E-05
   55.9800949        -2.59482276E-05
   56.1068878        -2.55399063E-05
   56.2336807        -2.51157799E-05
   56.3604736        -2.46844902E-05
   56.4872665        -2.42548304E-05
   56.6140594        -2.38356442E-05
   56.7408524        -2.34356721E-05
   56.8676453        -2.30634068E-05
   56.9944382        -2.27269720E-05
   57.1212273        -2.24339801E-05
   57.2480202        -2.21913870E-05
   57.3748131        -2.20053589E-05
   57.5016060        -2.18811801E-05
   57.6283989        -2.18231253E-05
   57.7551918        -2.18343794E-05
   57.8819847        -2.19169779E-05
   58.0087776        -2.20717393E-05
   58.1355705        -2.22982762E-05
   58.2623634        -2.25949825E-05
   58.3891563        -2.29590732E-05
   58.5159492        -2.33866522E-05
   58.6427422        -2.38727953E-05
   58.7695351        -2.44116709E-05
   58.8963280        -2.49966852E-05
   59.0231171        -2.56206185E-05
   59.1499100        -2.62757949E-05
   59.2767029        -2.69542925E-05
   59.4034958        -2.76480750E-05
   59.5302887        -2.83491772E-05
   59.6570816        -2.90498883E-05
   59.7838745        -2.97428633E-05
   59.9106674        -3.04212845E-05
   60.0374603        -3.10789073E-05
   60.1642532        -3.17101658E-05
   60.2910461        -3.23101813E-05
   60.4178391        -3.28747701E-05
   60.5446320        -3.34003998E-05
   60.6714249        -3.38841164E-05
   60.7982178        -3.43234788E-05
   60.9250069        -3.47164241E-05
   61.0517998        -3.50611408E-05
   61.1785927        -3.53559371E-05
   61.3053856        -3.55991106E-05
   61.4321785        -3.57888093E-05
   61.5589714        -3.59229525E-05
   61.6857643        -3.59991172E-05
   61.8125572        -3.60145059E-05
   61.9393501        -3.59659425E-05
   62.0661430        -3.58498874E-05
   62.1929359        -3.56625096E-05
   62.3197289        -3.53998366E-05
   62.4465218        -3.50578848E-05
   62.5733147        -3.46328707E-05
   62.7001076        -3.41214400E-05
   62.8268967        -3.35209297E-05
   62.9536896        -3.28296192E-05
   63.0804825        -3.20470426E-05
   63.2072754        -3.11741896E-05
   63.3340683        -3.02138051E-05
   63.4608612        -2.91705674E-05
   63.5876541        -2.80512613E-05
   63.7144470        -2.68648746E-05
   63.8412399        -2.56226631E-05
   63.9680328        -2.43381091E-05
   64.0948257        -2.30268361E-05
   64.2216187        -2.17064207E-05
   64.3484116        -2.03961717E-05
   64.4752045        -1.91167856E-05
   64.6019974        -1.78899973E-05
   64.7287903        -1.67381259E-05
   64.8555832        -1.56836140E-05
   64.9823761        -1.47485489E-05
   65.1091690        -1.39541125E-05
   65.2359619        -1.33201165E-05
   65.3627548        -1.28644861E-05
   65.4895477        -1.26028290E-05
   65.6163330        -1.25480274E-05
   65.7431259        -1.27098992E-05
   65.8699188        -1.30949529E-05
   65.9967117        -1.37061916E-05
   66.1235046        -1.45430449E-05
   66.2502975        -1.56013557E-05
   66.3770905        -1.68735005E-05
   66.5038834        -1.83485663E-05
   66.6306763        -2.00126251E-05
   66.7574692        -2.18490659E-05
   66.8842621        -2.38390148E-05
   67.0110550        -2.59617827E-05
   67.1378479        -2.81953435E-05
   67.2646408        -3.05168360E-05
   67.3914337        -3.29030518E-05
   67.5182266        -3.53309188E-05
   67.6450195        -3.77779397E-05
   67.7718124        -4.02225924E-05
   67.8986053        -4.26446495E-05
   68.0253983        -4.50254593E-05
   68.1521912        -4.73480977E-05
   68.2789841        -4.95975510E-05
   68.4057770        -5.17606422E-05
   68.5325699        -5.38260829E-05
   68.6593628        -5.57842613E-05
   68.7861557        -5.76271523E-05
   68.9129486        -5.93480254E-05
   69.0397415        -6.09412018E-05
   69.1665344        -6.24017557E-05
   69.2933273        -6.37252742E-05
   69.4201126        -6.49075009E-05
   69.5469055        -6.59441575E-05
   69.6736984        -6.68306748E-05
   69.8004913        -6.75620759E-05
   69.9272842        -6.81328384E-05
   70.0540771        -6.85368796E-05
   70.1808701        -6.87676438E-05
   70.3076630        -6.88181317E-05
   70.4344559        -6.86812127E-05
   70.5612488        -6.83497419E-05
   70.6880417        -6.78170109E-05
   70.8148346        -6.70770314E-05
   70.9416275        -6.61249505E-05
   71.0684204        -6.49575086E-05
   71.1952133        -6.35733377E-05
   71.3220062        -6.19734856E-05
   71.4487991        -6.01617467E-05
   71.5755920        -5.81449021E-05
   71.7023849        -5.59331384E-05
   71.8291779        -5.35400541E-05
   71.9559708        -5.09828642E-05
   72.0827637        -4.82824107E-05
   72.2095566        -4.54630390E-05
   72.3363495        -4.25524559E-05
   72.4631424        -3.95814604E-05
   72.5899353        -3.65835622E-05
   72.7167282        -3.35946097E-05
   72.8435211        -3.06522634E-05
   72.9703140        -2.77954314E-05
   73.0971069        -2.50637568E-05
   73.2238922        -2.24969008E-05
   73.3506851        -2.01340190E-05
   73.4774780        -1.80130846E-05
   73.6042709        -1.61702937E-05
   73.7310638        -1.46394977E-05
   73.8578568        -1.34516740E-05
   73.9846497        -1.26344112E-05
   74.1114426        -1.22114998E-05
   74.2382355        -1.22025422E-05
   74.3650284        -1.26226332E-05
   74.4918213        -1.34821248E-05
   74.6186142        -1.47864275E-05
   74.7454071        -1.65358852E-05
   74.8722000        -1.87257137E-05
   74.9989929        -2.13460044E-05
   75.1257858        -2.43817576E-05
   75.2525787        -2.78130155E-05
   75.3793716        -3.16149963E-05
   75.5061646        -3.57583340E-05
   75.6329575        -4.02093210E-05
   75.7597504        -4.49302024E-05
   75.8865433        -4.98795634E-05
   76.0133362        -5.50127006E-05
   76.1401291        -6.02820692E-05
   76.2669220        -6.56377597E-05
   76.3937149        -7.10279783E-05
   76.5205078        -7.63996286E-05
   76.6473007        -8.16988104E-05
   76.7740936        -8.68714269E-05
   76.9008865        -9.18637888E-05
   77.0276718        -9.66230946E-05
   77.1544647        -1.01098034E-04
   77.2812576        -1.05239356E-04
   77.4080505        -1.09000299E-04
   77.5348434        -1.12337118E-04
   77.6616364        -1.15209368E-04
   77.7884293        -1.17580406E-04
   77.9152222        -1.19417535E-04
   78.0420151        -1.20692297E-04
   78.1688080        -1.21380588E-04
   78.2956009        -1.21462770E-04
   78.4223938        -1.20923731E-04
   78.5491867        -1.19752774E-04
   78.6759796        -1.17943651E-04
   78.8027725        -1.15494418E-04
   78.9295654        -1.12407346E-04
   79.0563583        -1.08688771E-04
   79.1831512        -1.04348997E-04
   79.3099442        -9.94021393E-05
   79.4367371        -9.38660305E-05
   79.5635300        -8.77621787E-05
   79.6903229        -8.11156351E-05
   79.8171158        -7.39549723E-05
   79.9439087        -6.63122701E-05
   80.0707016        -5.82231114E-05
   80.1974945        -4.97265319E-05
   80.3242874        -4.08649903E-05
   80.4510803        -3.16843398E-05
   80.5778732        -2.22337039E-05
   80.7046585        -1.25653651E-05
   80.8314514        -2.73447154E-06
   80.9582443         7.20118260E-06
   81.0850372         1.71816191E-05
   81.2118301         2.71451208E-05
   81.3386230         3.70288762E-05
   81.4654160         4.67696118E-05
   81.5922089         5.63044196E-05
   81.7190018         6.55715558E-05
   81.8457947         7.45114667E-05
   81.9725876         8.30676363E-05
   82.0993805         9.11875977E-05
   82.2261734         9.88239553E-05
   82.3529663         1.05935207E-04
   82.4797592         1.12486676E-04
   82.6065521         1.18451186E-04
   82.7333450         1.23809703E-04
   82.8601379         1.28551779E-04
   82.9869308         1.32675792E-04
   83.1137238         1.36188988E-04
   83.2405167         1.39107389E-04
   83.3673096         1.41455326E-04
   83.4941025         1.43264930E-04
   83.6208954         1.44575271E-04
   83.7476883         1.45431346E-04
   83.8744812         1.45883023E-04
   84.0012741         1.45983679E-04
   84.1280670         1.45788712E-04
   84.2548599         1.45354294E-04
   84.3816528         1.44735750E-04
   84.5084381         1.43986152E-04
   84.6352310         1.43155004E-04
   84.7620239         1.42286997E-04
   84.8888168         1.41420824E-04
   85.0156097         1.40588440E-04
   85.1424026         1.39814234E-04
   85.2691956         1.39114694E-04
   85.3959885         1.38498144E-04
   85.5227814         1.37964831E-04
   85.6495743         1.37507232E-04
   85.7763672         1.37110575E-04
   85.9031601         1.36753602E-04
   86.0299530         1.36409551E-04
   86.1567459         1.36047194E-04
   86.2835388         1.35632086E-04
   86.4103317         1.35127935E-04
   86.5371246         1.34497721E-04
   86.6639175         1.33705296E-04
   86.7907104         1.32716465E-04
   86.9175034         1.31500230E-04
   87.0442963         1.30029905E-04
   87.1710892         1.28284009E-04
   87.2978821         1.26246989E-04
   87.4246750         1.23909937E-04
   87.5514679         1.21270750E-04
   87.6782608         1.18334559E-04
   87.8050537         1.15113617E-04
   87.9318466         1.11627058E-04
   88.0586395         1.07900567E-04
   88.1854324         1.03965918E-04
   88.3122177         9.98602409E-05
   88.4390106         9.56251752E-05
   88.5658035         9.13061303E-05
   88.6925964         8.69512660E-05
   88.8193893         8.26104661E-05
   88.9461823         7.83343858E-05
   89.0729752         7.41733747E-05
   89.1997681         7.01765603E-05
   89.3265610         6.63908868E-05
   89.4533539         6.28601483E-05
   89.5801468         5.96243081E-05
   89.7069397         5.67187635E-05
   89.8337326         5.41736990E-05
   89.9605255         5.20137037E-05
   90.0873184         5.02573457E-05
   90.2141113         4.89170125E-05
   90.3409042         4.79987684E-05
   90.4676971         4.75024390E-05
   90.5944901         4.74217850E-05
   90.7212830         4.77447938E-05
   90.8480759         4.84540615E-05
   90.9748688         4.95273271E-05
   91.1016617         5.09380807E-05
   91.2284546         5.26561962E-05
   91.3552475         5.46486954E-05
   91.4820404         5.68804353E-05
   91.6088333         5.93149307E-05
   91.7356262         6.19150596E-05
   91.8624191         6.46438129E-05
   91.9892120         6.74649127E-05
   92.1159973         7.03434998E-05
   92.2427902         7.32465269E-05
   92.3695831         7.61433039E-05
   92.4963760         7.90057165E-05
   92.6231689         8.18085609E-05
   92.7499619         8.45294999E-05
   92.8767548         8.71492230E-05
   93.0035477         8.96512793E-05
   93.1303406         9.20218808E-05
   93.2571335         9.42497500E-05
   93.3839264         9.63257480E-05
   93.5107193         9.82425772E-05
   93.6375122         9.99944314E-05
   93.7643051         1.01576559E-04
   93.8910980         1.02985083E-04
   94.0178909         1.04216611E-04
   94.1446838         1.05267936E-04
   94.2714767         1.06135922E-04
   94.3982697         1.06817322E-04
   94.5250626         1.07308770E-04
   94.6518555         1.07606706E-04
   94.7786484         1.07707536E-04
   94.9054413         1.07607746E-04
   95.0322342         1.07304062E-04
   95.1590271         1.06793661E-04
   95.2858200         1.06074491E-04
   95.4126129         1.05145504E-04
   95.5394058         1.04006831E-04
   95.6661987         1.02660124E-04
   95.7929916         1.01108650E-04
   95.9197769         9.93574940E-05
   96.0465698         9.74136419E-05
   96.1733627         9.52858682E-05
   96.3001556         9.29848393E-05
   96.4269485         9.05228080E-05
   96.5537415         8.79135478E-05
   96.6805344         8.51719378E-05
   96.8073273         8.23137379E-05
   96.9341202         7.93551590E-05
   97.0609131         7.63124481E-05
   97.1877060         7.32015615E-05
   97.3144989         7.00377204E-05
   97.4412918         6.68350549E-05
   97.5680847         6.36063633E-05
   97.6948776         6.03627850E-05
   97.8216705         5.71137425E-05
   97.9484634         5.38668100E-05
   98.0752563         5.06277647E-05