  -4.50000000         0.00000000    
  -4.37320757         0.00000000    
  -4.24641466         0.00000000    
  -4.11962223         0.00000000    
  -3.99282932         0.00000000    
  -3.86603665         0.00000000    
  -3.73924398        -9.93686591E-33
  -3.61245155        -7.88996099E-32
  -3.48565888         8.04690477E-32
  -3.35886621         1.16128197E-30
  -3.23207355        -4.52971717E-31
  -3.10528088         1.15130776E-29
  -2.97848821         7.35195168E-29
  -2.85169554         2.13102800E-28
  -2.72490287         3.75291885E-28
  -2.59811020         2.36271713E-28
  -2.47131753        -9.25283382E-28
  -2.34452486        -3.98079050E-27
  -2.21773219        -8.81656986E-27
  -2.09093952        -1.20416428E-26
  -1.96414697        -4.29767954E-27
  -1.83735430         3.01811249E-26
  -1.71056163         1.07136592E-25
  -1.58376896         2.24239382E-25
  -1.45697629         3.31121949E-25
  -1.33018374         2.98089434E-25
  -1.20339108        -9.01337926E-26
  -1.07659841        -1.07652712E-24
 -0.949805737        -2.77567967E-24
 -0.823013067        -4.92548656E-24
 -0.696220458        -6.63708359E-24
 -0.569427788        -6.34816684E-24
 -0.442635119        -2.27941516E-24
 -0.315842479         6.31998794E-24
 -0.189049825         1.70741259E-23
  -6.22571707E-02     2.19595920E-23
   6.45354837E-02     5.50560501E-24
  0.191328138        -5.44360031E-23
  0.318120778        -1.81226000E-22
  0.444913447        -3.87831309E-22
  0.571706116        -6.59693856E-22
  0.698498726        -9.36163981E-22
  0.825291395        -1.09877333E-21
  0.952084064        -9.77961037E-22
   1.07887673        -3.90068721E-22
   1.20566940         7.88854695E-22
   1.33246195         2.51800867E-21
   1.45925462         4.47919796E-21
   1.58604729         6.00003656E-21
   1.71283996         6.07053311E-21
   1.83963263         3.50932708E-21
   1.96642530        -2.68934532E-21
   2.09321785        -1.28495109E-20
   2.22001052        -2.60439641E-20
   2.34680319        -3.96354318E-20
   2.47359586        -4.91560997E-20
   2.60038853        -4.87494435E-20
   2.72718120        -3.23101142E-20
   2.85397387         4.72301227E-21
   2.98076653         6.32138339E-20
   3.10755920         1.38367219E-19
   3.23435187         2.18687555E-19
   3.36114454         2.86588459E-19
   3.48793697         3.21139922E-19
   3.61472964         3.02935564E-19
   3.74152231         2.20380328E-19
   3.86831498         7.60060657E-20
   3.99510765        -1.09046884E-19
   4.12190056        -2.94258103E-19
   4.24869299        -4.23954724E-19
   4.37548542        -4.36664406E-19
   4.50227833        -2.78216176E-19
   4.62907076         8.42036776E-20
   4.75586367         6.50645794E-19
   4.88265610         1.38304133E-18
   5.00944901         2.20790760E-18
   5.13624144         3.02685176E-18
   5.26303434         3.73210740E-18
   5.38982677         4.22256719E-18
   5.51661968         4.41560840E-18
   5.64341211         4.25181671E-18
   5.77020502         3.69319352E-18
   5.89699745         2.71924687E-18
   6.02379036         1.32792960E-18
   6.15058279        -4.52267255E-19
   6.27737522        -2.53718297E-18
   6.40416813        -4.75475741E-18
   6.53096056        -6.82014882E-18
   6.65775347        -8.33834205E-18
   6.78454590        -8.85334470E-18
   6.91133881        -7.95309757E-18
   7.03813124        -5.42089671E-18
   7.16492414        -1.40204829E-18
   7.29171658         3.46435400E-18
   7.41850948         8.00536711E-18
   7.54530191         1.06114278E-17
   7.67209482         9.48543642E-18
   7.79888725         3.01365017E-18
   7.92567968        -9.81842956E-18
   8.05247211        -2.90740056E-17
   8.17926502        -5.36896300E-17
   8.30605793        -8.15561372E-17
   8.43285084        -1.09870020E-16
   8.55964279        -1.35685348E-16
   8.68643570        -1.56520320E-16
   8.81322861        -1.70829128E-16
   8.94002151        -1.78161456E-16
   9.06681347        -1.78903563E-16
   9.19360638        -1.73612571E-16
   9.32039928        -1.62095279E-16
   9.44719219        -1.42497914E-16
   9.57398415        -1.10733650E-16
   9.70077705        -6.05492966E-17
   9.82756996         1.55784298E-17
   9.95436192         1.24708608E-16
   10.0811548         2.71066610E-16
   10.2079477         4.53441618E-16
   10.3347406         6.62892961E-16
   10.4615326         8.81357369E-16
   10.5883255         1.08169601E-15
   10.7151184         1.22956838E-15
   10.8419113         1.28727959E-15
   10.9687033         1.21944993E-15
   11.0954962         1.00001546E-15
   11.2222891         6.19740285E-16
   11.3490820         9.31117445E-17
   11.4758739        -5.36710569E-16
   11.6026669        -1.19628962E-15
   11.7294598        -1.78487545E-15
   11.8562517        -2.18276282E-15
   11.9830446        -2.26517680E-15
   12.1098375        -1.92088755E-15
   12.2366304        -1.07378208E-15
   12.3634224         2.95375238E-16
   12.4902153         2.13039861E-15
   12.6170082         4.28798275E-15
   12.7438011         6.53608781E-15
   12.8705931         8.56460339E-15
   12.9973860         1.00088988E-14
   13.1241789         1.04851049E-14
   13.2509708         9.63389779E-15
   13.3777637         7.16827636E-15
   13.5045567         2.91970393E-15
   13.6313496        -3.12295500E-15
   13.7581415        -1.07865589E-14
   13.8849344        -1.97022896E-14
   14.0117273        -2.93112296E-14
   14.1385202        -3.88864762E-14
   14.2653122        -4.75698379E-14
   14.3921051        -5.44199729E-14
   14.5188980        -5.84685430E-14
   14.6456909        -5.87811795E-14
   14.7724829        -5.45209900E-14
   14.8992758        -4.50123574E-14
   15.0260687        -2.98042027E-14
   15.1528606        -8.73046938E-15
   15.2796535         1.80342835E-14
   15.4064465         4.99285909E-14
   15.5332394         8.59731055E-14
   15.6600313         1.24761746E-13
   15.7868242         1.64482767E-13
   15.9136171         2.02976660E-13
   16.0404091         2.37833922E-13
   16.1672020         2.66531263E-13
   16.2939949         2.86599981E-13
   16.4207878         2.95811173E-13
   16.5475807         2.92359480E-13
   16.6743736         2.75020214E-13
   16.8011646         2.43255421E-13
   16.9279575         1.97245662E-13
   17.0547504         1.37831519E-13
   17.1815434         6.63573471E-14
   17.3083363        -1.55757196E-14
   17.4351292        -1.06428694E-13
   17.5619221        -2.05080703E-13
   17.6887150        -3.11175564E-13
   17.8155060        -4.25404964E-13
   17.9422989        -5.49666703E-13
   18.0690918        -6.87041136E-13
   18.1958847        -8.41532790E-13
   18.3226776        -1.01753870E-12
   18.4494705        -1.21902466E-12
   18.5762634        -1.44841409E-12
   18.7030544        -1.70522136E-12
   18.8298473        -1.98450783E-12
   18.9566402        -2.27525290E-12
   19.0834332        -2.55880343E-12
   19.2102261        -2.80756841E-12
   19.3370190        -2.98418733E-12
   19.4638119        -3.04140437E-12
   19.5906048        -2.92289413E-12
   19.7173958        -2.56526983E-12
   19.8441887        -1.90144536E-12
   19.9709816        -8.65468775E-13
   20.0977745         6.01192924E-13
   20.2245674         2.54206248E-12
   20.3513603         4.97706867E-12
   20.4781532         7.89345932E-12
   20.6049442         1.12368725E-11
   20.7317371         1.49033615E-11
   20.8585300         1.87332875E-11
   20.9853230         2.25080007E-11
   21.1121159         2.59502992E-11
   21.2389088         2.87294025E-11
   21.3657017         3.04711360E-11
   21.4924946         3.07737169E-11
   21.6192856         2.92291816E-11
   21.7460785         2.54501264E-11
   21.8728714         1.91010870E-11
   21.9996643         9.93330678E-12
   22.1264572        -2.17867152E-12
   22.2532501        -1.72006524E-11
   22.3800430        -3.49051135E-11
   22.5068340        -5.48429462E-11
   22.6336269        -7.63235031E-11
   22.7604198        -9.84058668E-11
   22.8872128        -1.19904323E-10
   23.0140057        -1.39410206E-10
   23.1407986        -1.55332122E-10
   23.2675915        -1.65955735E-10
   23.3943844        -1.69522590E-10
   23.5211754        -1.64327232E-10
   23.6479683        -1.48829699E-10
   23.7747612        -1.21779115E-10
   23.9015541        -8.23432988E-11
   24.0283470        -3.02370871E-11
   24.1551399         3.41582977E-11
   24.2819328         1.09693796E-10
   24.4087238         1.94377764E-10
   24.5355167         2.85337060E-10
   24.6623096         3.78822362E-10
   24.7891026         4.70264105E-10
   24.9158955         5.54384261E-10
   25.0426884         6.25367369E-10
   25.1694813         6.77087997E-10
   25.2962742         7.03392899E-10
   25.4230652         6.98430147E-10
   25.5498581         6.57011390E-10
   25.6766510         5.74995662E-10
   25.8034439         4.49674104E-10
   25.9302368         2.80136303E-10
   26.0570297         6.75948048E-11
   26.1838226        -1.84354698E-10
   26.3106136        -4.69560446E-10
   26.4374065        -7.79250331E-10
   26.5641994        -1.10209308E-09
   26.6909924        -1.42439971E-09
   26.8177853        -1.73047121E-09
   26.9445782        -2.00309502E-09
   27.0713711        -2.22418350E-09
   27.1981640        -2.37553976E-09
   27.3249550        -2.43972820E-09
   27.4517479        -2.40101938E-09
   27.5785408        -2.24637065E-09
   27.7053337        -1.96640371E-09
   27.8321266        -1.55632129E-09
   27.9589195        -1.01672248E-09
   28.0857124        -3.54254681E-10
   28.2125034         4.17938462E-10
   28.3392963         1.28002586E-09
   28.4660892         2.20558727E-09
   28.5928822         3.16203419E-09
   28.7196751         4.11136369E-09
   28.8464680         5.01125008E-09
   28.9732609         5.81645798E-09
   29.1000538         6.48054499E-09
   29.2268448         6.95780633E-09
   29.3536377         7.20538562E-09
   29.4804306         7.18549309E-09
   29.6072235         6.86760515E-09
   29.7340164         6.23057561E-09
   29.8608093         5.26451860E-09
   29.9876022         3.97239175E-09
   30.1143932         2.37114373E-09
   30.2411861         4.92349106E-10
   30.3679790        -1.61774250E-09
   30.4947720        -3.89879906E-09
   30.6215649        -6.27767260E-09
   30.7483578        -8.67033201E-09
   30.8751507        -1.09844320E-08
   31.0019417        -1.31224471E-08
   31.1287346        -1.49852735E-08
   31.2555275        -1.64761715E-08
   31.3823204        -1.75049077E-08
   31.5091133        -1.79918871E-08
   31.6359062        -1.78721447E-08
   31.7626991        -1.70989392E-08
   31.8894920        -1.56468598E-08
   32.0162849        -1.35141853E-08
   32.1430779        -1.07244071E-08
   32.2698708        -7.32681249E-09
   32.3966637        -3.39603057E-09
   32.5234528         9.69469283E-10
   32.6502457         5.64988856E-09
   32.7770386         1.05075681E-08
   32.9038315         1.53912776E-08
   33.0306244         2.01411687E-08
   33.1574173         2.45942040E-08
   33.2842102         2.85898221E-08
   33.4110031         3.19756310E-08
   33.5377960         3.46128672E-08
   33.6645889         3.63814081E-08
   33.7913818         3.71841544E-08
   33.9181747         3.69505351E-08
   34.0449677         3.56391539E-08
   34.1717606         3.32392993E-08
   34.2985535         2.97714724E-08
   34.4253426         2.52868322E-08
   34.5521355         1.98656647E-08
   34.6789284         1.36150193E-08
   34.8057213         6.66561517E-09
   34.9325142        -8.31804958E-10
   35.0593071        -8.71046524E-09
   35.1861000        -1.67917662E-08
   35.3128929        -2.48894487E-08
   35.4396858        -3.28137197E-08
   35.5664787        -4.03750526E-08
   35.6932716        -4.73877648E-08
   35.8200645        -5.36732010E-08
   35.9468575        -5.90626534E-08
   36.0736504        -6.33999662E-08
   36.2004433        -6.65440041E-08
   36.3272324        -6.83709089E-08
   36.4540253        -6.87765649E-08
   36.5808182        -6.76789256E-08
   36.7076111        -6.50206857E-08
   36.8344040        -6.07720310E-08
   36.9611969        -5.49336541E-08
   37.0879898        -4.75397783E-08
   37.2147827        -3.86611880E-08
   37.3415756        -2.84080404E-08
   37.4683685        -1.69321890E-08
   37.5951614        -4.42874271E-09
   37.7219543         8.86347173E-09
   37.8487473         2.26628050E-08
   37.9755402         3.66473820E-08
   38.1023293         5.04596187E-08
   38.2291222         6.37128679E-08
   38.3559151         7.60003118E-08
   38.4827080         8.69060059E-08
   38.6095009         9.60178355E-08
   38.7362938         1.02942536E-07
   38.8630867         1.07321689E-07
   38.9898796         1.08848653E-07
   39.1166725         1.07285651E-07
   39.2434654         1.02480037E-07
   39.3702583         9.43791747E-08
   39.4970512         8.30429201E-08
   39.6238441         6.86528594E-08
   39.7506371         5.15176879E-08
   39.8774300         3.20738067E-08
   40.0042191         1.08807932E-08
   40.1310120        -1.13886252E-08
   40.2578049        -3.39642625E-08
   40.3845978        -5.59997027E-08
   40.5113907        -7.65985106E-08
   40.6381836        -9.48450705E-08
   40.7649765        -1.09838808E-07
   40.8917694        -1.20730903E-07
   41.0185623        -1.26762160E-07
   41.1453552        -1.27300382E-07
   41.2721481        -1.21875857E-07
   41.3989410        -1.10213428E-07
   41.5257339        -9.22595333E-08
   41.6525269        -6.82028087E-08
   41.7793198        -3.84871583E-08
   41.9061089        -3.81630949E-09
   42.0329018         3.48507854E-08
   42.1596947         7.63140235E-08
   42.2864876         1.19155338E-07
   42.4132805         1.61770885E-07
   42.5400734         2.02410916E-07
   42.6668663         2.39226267E-07
   42.7936592         2.70319788E-07
   42.9204521         2.93801037E-07
   43.0472450         3.07841674E-07
   43.1740379         3.10729718E-07
   43.3008308         3.00920675E-07
   43.4276237         2.77082762E-07
   43.5544167         2.38134575E-07
   43.6812096         1.83273855E-07
   43.8079987         1.11994986E-07
   43.9347916         2.40957050E-08
   44.0615845        -8.03288174E-08
   44.1883774        -2.00903798E-07
   44.3151703        -3.37003797E-07
   44.4419632        -4.87792533E-07
   44.5687561        -6.52270387E-07
   44.6955490        -8.29329906E-07
   44.8223419        -1.01781461E-06
   44.9491348        -1.21657968E-06
   45.0759277        -1.42455087E-06
   45.2027206        -1.64078006E-06
   45.3295135        -1.86449336E-06
   45.4563065        -2.09512746E-06
   45.5830994        -2.33235869E-06
   45.7098885        -2.57611100E-06
   45.8366814        -2.82655583E-06
   45.9634743        -3.08408903E-06
   46.0902672        -3.34929609E-06
   46.2170601        -3.62290166E-06
   46.3438530        -3.90569994E-06
   46.4706459        -4.19847856E-06
   46.5974388        -4.50193011E-06
   46.7242317        -4.81655934E-06
   46.8510246        -5.14258818E-06
   46.9778175        -5.47985792E-06
   47.1046104        -5.82774874E-06
   47.2314034        -6.18509830E-06
   47.3581963        -6.55014492E-06
   47.4849892        -6.92048525E-06
   47.6117783        -7.29305521E-06
   47.7385712        -7.66414087E-06
   47.8653641        -8.02940485E-06
   47.9921570        -8.38395408E-06
   48.1189499        -8.72242890E-06
   48.2457428        -9.03911587E-06
   48.3725357        -9.32808780E-06
   48.4993286        -9.58336750E-06
   48.6261215        -9.79909964E-06
   48.7529144        -9.96973176E-06
   48.8797073        -1.00902080E-05
   49.0065002        -1.01561491E-05
   49.1332932        -1.01640271E-05
   49.2600861        -1.01113255E-05
   49.3868790        -9.99667191E-06
   49.5136681        -9.81993526E-06
   49.6404610        -9.58230521E-06
   49.7672539        -9.28630834E-06
   49.8940468        -8.93581273E-06
   50.0208397        -8.53595793E-06
   50.1476326        -8.09306403E-06
   50.2744255        -7.61449064E-06
   50.4012184        -7.10846871E-06
   50.5280113        -6.58388399E-06
   50.6548042        -6.05005471E-06
   50.7815971        -5.51647054E-06
   50.9083900        -4.99254065E-06
   51.0351830        -4.48732726E-06
   51.1619759        -4.00929912E-06
   51.2887688        -3.56608257E-06
   51.4155579        -3.16427258E-06
   51.5423508        -2.80922859E-06
   51.6691437        -2.50496191E-06
   51.7959366        -2.25402255E-06
   51.9227295        -2.05746096E-06
   52.0495224        -1.91482241E-06
   52.1763153        -1.82420035E-06
   52.3031082        -1.78233688E-06
   52.4299011        -1.78474750E-06
   52.5566940        -1.82590770E-06
   52.6834869        -1.89944740E-06
   52.8102798        -1.99838382E-06
   52.9370728        -2.11535371E-06
   53.0638657        -2.24286805E-06
   53.1906586        -2.37354493E-06
   53.3174477        -2.50034213E-06
   53.4442406        -2.61676041E-06
   53.5710335        -2.71704357E-06
   53.6978264        -2.79631149E-06
   53.8246193        -2.85068381E-06
   53.9514122        -2.87737384E-06
   54.0782051        -2.87468856E-06
   54.2049980        -2.84208795E-06
   54.3317909        -2.78011316E-06
   54.4585838        -2.69032398E-06
   54.5853767        -2.57522788E-06
   54.7121696        -2.43815225E-06
   54.8389626        -2.28311205E-06
   54.9657555        -2.11467454E-06
   55.0925484        -1.93781011E-06
   55.2193375        -1.75773903E-06
   55.3461304        -1.57979696E-06
   55.4729233        -1.40929615E-06
   55.5997162        -1.25141071E-06
   55.7265091        -1.11104498E-06
   55.8533020        -9.92764853E-07
   55.9800949        -9.00683290E-07
   56.1068878        -8.38421613E-07
   56.2336807        -8.09016399E-07
   56.3604736        -8.14907253E-07
   56.4872665        -8.57857970E-07
   56.6140594        -9.38951132E-07
   56.7408524        -1.05852757E-06
   56.8676453        -1.21618984E-06
   56.9944382        -1.41074145E-06
   57.1212273        -1.64018240E-06
   57.2480202        -1.90167202E-06
   57.3748131        -2.19153299E-06
   57.5016060        -2.50521521E-06
   57.6283989        -2.83731356E-06
   57.7551918        -3.18158004E-06
   57.8819847        -3.53096061E-06
   58.0087776        -3.87764521E-06
   58.1355705        -4.21315190E-06
   58.2623634        -4.52844324E-06
   58.3891563        -4.81405459E-06
   58.5159492        -5.06026436E-06
   58.6427422        -5.25730320E-06
   58.7695351        -5.39555913E-06
   58.8963280        -5.46584761E-06
   59.0231171        -5.45965668E-06
   59.1499100        -5.36943526E-06
   59.2767029        -5.18887782E-06
   59.4034958        -4.91317724E-06
   59.5302887        -4.53929488E-06
   59.6570816        -4.06618756E-06
   59.7838745        -3.49498760E-06
   59.9106674        -2.82916676E-06
   60.0374603        -2.07459129E-06
   60.1642532        -1.23956795E-06
   60.2910461        -3.34785994E-07
   60.4178391         6.26813176E-07
   60.5446320         1.63021275E-06
   60.6714249         2.65858944E-06
   60.7982178         3.69369263E-06
   60.9250069         4.71619160E-06
   61.0517998         5.70618931E-06
   61.1785927         6.64367872E-06
   61.3053856         7.50907930E-06
   61.4321785         8.28380689E-06
   61.5589714         8.95077574E-06
   61.6857643         9.49493460E-06
   61.8125572         9.90374156E-06
   61.9393501         1.01675887E-05
   62.0661430         1.02801623E-05
   62.1929359         1.02386657E-05
   62.3197289         1.00440557E-05
   62.4465218         9.70104338E-06
   62.5733147         9.21805986E-06
   62.7001076         8.60713317E-06
   62.8268967         7.88353827E-06
   62.9536896         7.06548371E-06
   63.0804825         6.17358546E-06
   63.2072754         5.23031940E-06
   63.3340683         4.25940652E-06
   63.4608612         3.28509327E-06
   63.5876541         2.33149467E-06
   63.7144470         1.42182193E-06
   63.8412399         5.77739684E-07
   63.9680328        -1.81311833E-07
   64.0948257        -8.38699009E-07
   64.2216187        -1.38108840E-06
   64.3484116        -1.79886217E-06
   64.4752045        -2.08636970E-06
   64.6019974        -2.24211180E-06
   64.7287903        -2.26874840E-06
   64.8555832        -2.17297656E-06
   64.9823761        -1.96529572E-06
   65.1091690        -1.65962240E-06
   65.2359619        -1.27281703E-06
   65.3627548        -8.24100653E-07
   65.4895477        -3.34398379E-07
   65.6163330         1.74363166E-07
   65.7431259         6.79982463E-07
   65.8699188         1.16072079E-06
   65.9967117         1.59599790E-06
   66.1235046         1.96705082E-06
   66.2502975         2.25749955E-06
   66.3770905         2.45383376E-06
   66.5038834         2.54578390E-06
   66.6306763         2.52656309E-06
   66.7574692         2.39297538E-06
   66.8842621         2.14541546E-06
   67.0110550         1.78771973E-06
   67.1378479         1.32688137E-06
   67.2646408         7.72717897E-07
   67.3914337         1.37367024E-07
   67.5182266        -5.65221910E-07
   67.6450195        -1.31984768E-06
   67.7718124        -2.11068345E-06
   67.8986053        -2.92183813E-06
   68.0253983        -3.73792932E-06
   68.1521912        -4.54458768E-06
   68.2789841        -5.32888726E-06
   68.4057770        -6.07966831E-06
   68.5325699        -6.78781998E-06
   68.6593628        -7.44639010E-06
   68.7861557        -8.05061518E-06
   68.9129486        -8.59786542E-06
   69.0397415        -9.08745096E-06
   69.1665344        -9.52032497E-06
   69.2933273        -9.89879663E-06
   69.4201126        -1.02261465E-05
   69.5469055        -1.05061681E-05
   69.6736984        -1.07428132E-05
   69.8004913        -1.09397079E-05
   69.9272842        -1.10998517E-05
   70.0540771        -1.12252219E-05
   70.1808701        -1.13165888E-05
   70.3076630        -1.13732922E-05
   70.4344559        -1.13932156E-05
   70.5612488        -1.13727519E-05
   70.6880417        -1.13069309E-05
   70.8148346        -1.11895988E-05
   70.9416275        -1.10137289E-05
   71.0684204        -1.07717060E-05
   71.1952133        -1.04557594E-05
   71.3220062        -1.00583702E-05
   71.4487991        -9.57272277E-06
   71.5755920        -8.99311090E-06
   71.7023849        -8.31540092E-06
   71.8291779        -7.53734867E-06
   71.9559708        -6.65894186E-06
   72.0827637        -5.68265386E-06
   72.2095566        -4.61358923E-06
   72.3363495        -3.45957483E-06
   72.4631424        -2.23114057E-06
   72.5899353        -9.41411997E-07
   72.7167282         3.94064926E-07
   72.8435211         1.75760863E-06
   72.9703140         3.12973339E-06
   73.0971069         4.48955598E-06
   73.2238922         5.81524364E-06
   73.3506851         7.08448988E-06
   73.4774780         8.27501208E-06
   73.6042709         9.36505603E-06
   73.7310638         1.03338898E-05
   73.8578568         1.11622649E-05
   73.9846497         1.18328508E-05
   74.1114426         1.23306199E-05
   74.2382355         1.26431987E-05
   74.3650284         1.27611029E-05
   74.4918213         1.26780105E-05
   74.6186142         1.23908594E-05
   74.7454071         1.18999687E-05
   74.8722000         1.12090538E-05
   74.9989929         1.03252078E-05
   75.1257858         9.25880795E-06
   75.2525787         8.02340128E-06
   75.3793716         6.63550645E-06
   75.5061646         5.11443795E-06
   75.6329575         3.48204071E-06
   75.7597504         1.76238825E-06
   75.8865433        -1.84652027E-08
   76.0133362        -1.83285351E-06
   76.1401291        -3.65183996E-06
   76.2669220        -5.44552859E-06
   76.3937149        -7.18355386E-06
   76.5205078        -8.83534904E-06
   76.6473007        -1.03706670E-05
   76.7740936        -1.17599138E-05
   76.9008865        -1.29746441E-05
   77.0276718        -1.39879776E-05
   77.1544647        -1.47750243E-05
   77.2812576        -1.53133624E-05
   77.4080505        -1.55834241E-05
   77.5348434        -1.55688977E-05
   77.6616364        -1.52571511E-05
   77.7884293        -1.46395087E-05
   77.9152222        -1.37115549E-05
   78.0420151        -1.24734206E-05
   78.1688080        -1.09298398E-05
   78.2956009        -9.09033042E-06
   78.4223938        -6.96906045E-06
   78.5491867        -4.58486466E-06
   78.6759796        -1.96102951E-06
   78.8027725         8.75134901E-07
   78.9295654         3.89247180E-06
   79.0563583         7.05655202E-06
   79.1831512         1.03302818E-05
   79.3099442         1.36744384E-05
   79.4367371         1.70483818E-05
   79.5635300         2.04107600E-05
   79.6903229         2.37201966E-05
   79.8171158         2.69360753E-05
   79.9439087         3.00192114E-05
   80.0707016         3.29325558E-05
   80.1974945         3.56417695E-05
   80.3242874         3.81158243E-05
   80.4510803         4.03274134E-05
   80.5778732         4.22533558E-05
   80.7046585         4.38749194E-05
   80.8314514         4.51778724E-05
   80.9582443         4.61526979E-05
   81.0850372         4.67944774E-05
   81.2118301         4.71027888E-05
   81.3386230         4.70815176E-05
   81.4654160         4.67385944E-05
   81.5922089         4.60856245E-05
   81.7190018         4.51375818E-05
   81.8457947         4.39123651E-05
   81.9725876         4.24304017E-05
   82.0993805         4.07141706E-05
   82.2261734         3.87878972E-05
   82.3529663         3.66770182E-05
   82.4797592         3.44078871E-05
   82.6065521         3.20073814E-05
   82.7333450         2.95025930E-05
   82.8601379         2.69205448E-05
   82.9869308         2.42878505E-05
   83.1137238         2.16305489E-05
   83.2405167         1.89738457E-05
   83.3673096         1.63418699E-05
   83.4941025         1.37575498E-05
   83.6208954         1.12422504E-05
   83.7476883         8.81571214E-06
   83.8744812         6.49578578E-06
   84.0012741         4.29831971E-06
   84.1280670         2.23679126E-06
   84.2548599         3.22275213E-07
   84.3816528        -1.43682803E-06
   84.5084381        -3.03484489E-06
   84.6352310        -4.46897957E-06
   84.7620239        -5.73950228E-06
   84.8888168        -6.84966381E-06
   85.0156097        -7.80582286E-06
   85.1424026        -8.61719218E-06
   85.2691956        -9.29583803E-06
   85.3959885        -9.85640145E-06
   85.5227814        -1.03157809E-05
   85.6495743        -1.06928437E-05
   85.7763672        -1.10078645E-05
   85.9031601        -1.12821854E-05
   86.0299530        -1.15375797E-05
   86.1567459        -1.17956970E-05
   86.2835388        -1.20775430E-05
   86.4103317        -1.24028538E-05
   86.5371246        -1.27895346E-05
   86.6639175        -1.32532014E-05
   86.7907104        -1.38067007E-05
   86.9175034        -1.44596888E-05
   87.0442963        -1.52184584E-05
   87.1710892        -1.60856034E-05
   87.2978821        -1.70600997E-05
   87.4246750        -1.81372579E-05
   87.5514679        -1.93089709E-05
   87.6782608        -2.05639590E-05
   87.8050537        -2.18882069E-05
   87.9318466        -2.32654693E-05
   88.0586395        -2.46777599E-05
   88.1854324        -2.61060522E-05
   88.3122177        -2.75310122E-05
   88.4390106        -2.89334967E-05
   88.5658035        -3.02954304E-05
   88.6925964        -3.16003097E-05
   88.8193893        -3.28337919E-05
   88.9461823        -3.39842809E-05
   89.0729752        -3.50431910E-05
   89.1997681        -3.60053818E-05
   89.3265610        -3.68692527E-05
   89.4533539        -3.76366552E-05
   89.5801468        -3.83129009E-05
   89.7069397        -3.89065972E-05
   89.8337326        -3.94290037E-05
   89.9605255        -3.98938355E-05
   90.0873184        -4.03164886E-05
   90.2141113        -4.07135485E-05
   90.3409042        -4.11019646E-05
   90.4676971        -4.14983806E-05
   90.5944901        -4.19184762E-05
   90.7212830        -4.23762358E-05
   90.8480759        -4.28833155E-05
   90.9748688        -4.34485410E-05
   91.1016617        -4.40774711E-05
   91.2284546        -4.47720886E-05
   91.3552475        -4.55306472E-05
   91.4820404        -4.63475481E-05
   91.6088333        -4.72135362E-05
   91.7356262        -4.81159113E-05
   91.8624191        -4.90389539E-05
   91.9892120        -4.99643356E-05
   92.1159973        -5.08718331E-05
   92.2427902        -5.17398221E-05
   92.3695831        -5.25462237E-05
   92.4963760        -5.32690101E-05
   92.6231689        -5.38871936E-05
   92.7499619        -5.43812384E-05
   92.8767548        -5.47339441E-05
   93.0035477        -5.49308315E-05
   93.1303406        -5.49606775E-05
   93.2571335        -5.48157768E-05
   93.3839264        -5.44921422E-05
   93.5107193        -5.39896137E-05
   93.6375122        -5.33117636E-05
   93.7643051        -5.24655479E-05
   93.8910980        -5.14611747E-05
   94.0178909        -5.03115807E-05
   94.1446838        -4.90318453E-05
   94.2714767        -4.76387177E-05
   94.3982697        -4.61499076E-05
   94.5250626        -4.45835176E-05
   94.6518555        -4.29574466E-05
   94.7786484        -4.12888076E-05
   94.9054413        -3.95934258E-05
   95.0322342        -3.78854565E-05
   95.1590271        -3.61770108E-05
   95.2858200        -3.44779546E-05
   95.4126129        -3.27957459E-05
   95.5394058        -3.11354488E-05
   95.6661987        -2.94997844E-05
   95.7929916        -2.78892276E-05
   95.9197769        -2.63023176E-05
   96.0465698        -2.47359094E-05
   96.1733627        -2.31854210E-05
   96.3001556        -2.16452572E-05
   96.4269485        -2.01090625E-05
   96.5537415        -1.85700719E-05
   96.6805344        -1.70214080E-05
   96.8073273        -1.54562695E-05
   96.9341202        -1.38681480E-05
   97.0609131        -1.22509628E-05
   97.1877060        -1.05991530E-05
   97.3144989        -8.90776573E-06
   97.4412918        -7.17238163E-06
   97.5680847        -5.38920722E-06
   97.6948776        -3.55496968E-06
   97.8216705        -1.66693746E-06
   97.9484634         2.77121870E-07
   98.0752563         2.27889973E-06