  -4.50000000         0.00000000    
  -4.37320757         0.00000000    
  -4.24641466         0.00000000    
  -4.11962223         0.00000000    
  -3.99282932         0.00000000    
  -3.86603665         0.00000000    
  -3.73924398         0.00000000    
  -3.61245155         0.00000000    
  -3.48565888         0.00000000    
  -3.35886621         0.00000000    
  -3.23207355         0.00000000    
  -3.10528088         0.00000000    
  -2.97848821         0.00000000    
  -2.85169554         0.00000000    
  -2.72490287         0.00000000    
  -2.59811020         0.00000000    
  -2.47131753         0.00000000    
  -2.34452486         0.00000000    
  -2.21773219         0.00000000    
  -2.09093952         0.00000000    
  -1.96414697         0.00000000    
  -1.83735430         0.00000000    
  -1.71056163         0.00000000    
  -1.58376896         0.00000000    
  -1.45697629         0.00000000    
  -1.33018374         0.00000000    
  -1.20339108         0.00000000    
  -1.07659841         0.00000000    
 -0.949805737         0.00000000    
 -0.823013067         0.00000000    
 -0.696220458         0.00000000    
 -0.569427788         0.00000000    
 -0.442635119         0.00000000    
 -0.315842479         0.00000000    
 -0.189049825         0.00000000    
  -6.22571707E-02     0.00000000    
   6.45354837E-02     0.00000000    
  0.191328138         0.00000000    
  0.318120778         0.00000000    
  0.444913447         0.00000000    
  0.571706116         0.00000000    
  0.698498726         0.00000000    
  0.825291395         0.00000000    
  0.952084064         0.00000000    
   1.07887673         0.00000000    
   1.20566940         0.00000000    
   1.33246195         0.00000000    
   1.45925462         0.00000000    
   1.58604729         0.00000000    
   1.71283996         0.00000000    
   1.83963263         0.00000000    
   1.96642530         0.00000000    
   2.09321785         0.00000000    
   2.22001052         0.00000000    
   2.34680319         0.00000000    
   2.47359586         0.00000000    
   2.60038853         0.00000000    
   2.72718120         0.00000000    
   2.85397387         0.00000000    
   2.98076653         0.00000000    
   3.10755920         0.00000000    
   3.23435187         0.00000000    
   3.36114454         0.00000000    
   3.48793697         0.00000000    
   3.61472964         0.00000000    
   3.74152231         0.00000000    
   3.86831498         0.00000000    
   3.99510765         0.00000000    
   4.12190056         0.00000000    
   4.24869299         0.00000000    
   4.37548542         0.00000000    
   4.50227833         0.00000000    
   4.62907076         0.00000000    
   4.75586367         0.00000000    
   4.88265610         0.00000000    
   5.00944901         0.00000000    
   5.13624144         0.00000000    
   5.26303434         0.00000000    
   5.38982677         0.00000000    
   5.51661968         0.00000000    
   5.64341211         0.00000000    
   5.77020502         0.00000000    
   5.89699745         0.00000000    
   6.02379036         0.00000000    
   6.15058279         0.00000000    
   6.27737522         0.00000000    
   6.40416813         0.00000000    
   6.53096056         0.00000000    
   6.65775347         0.00000000    
   6.78454590         0.00000000    
   6.91133881         0.00000000    
   7.03813124         0.00000000    
   7.16492414         0.00000000    
   7.29171658         0.00000000    
   7.41850948         0.00000000    
   7.54530191         0.00000000    
   7.67209482         0.00000000    
   7.79888725         0.00000000    
   7.92567968         0.00000000    
   8.05247211         0.00000000    
   8.17926502         0.00000000    
   8.30605793         0.00000000    
   8.43285084         0.00000000    
   8.55964279         0.00000000    
   8.68643570         0.00000000    
   8.81322861         0.00000000    
   8.94002151         0.00000000    
   9.06681347         0.00000000    
   9.19360638         0.00000000    
   9.32039928         0.00000000    
   9.44719219         0.00000000    
   9.57398415         0.00000000    
   9.70077705         0.00000000    
   9.82756996         0.00000000    
   9.95436192         0.00000000    
   10.0811548         0.00000000    
   10.2079477         0.00000000    
   10.3347406         0.00000000    
   10.4615326         0.00000000    
   10.5883255         0.00000000    
   10.7151184         0.00000000    
   10.8419113         0.00000000    
   10.9687033         0.00000000    
   11.0954962         0.00000000    
   11.2222891         0.00000000    
   11.3490820         0.00000000    
   11.4758739         0.00000000    
   11.6026669         0.00000000    
   11.7294598         0.00000000    
   11.8562517         0.00000000    
   11.9830446         0.00000000    
   12.1098375         0.00000000    
   12.2366304         0.00000000    
   12.3634224         0.00000000    
   12.4902153         0.00000000    
   12.6170082         0.00000000    
   12.7438011         0.00000000    
   12.8705931         0.00000000    
   12.9973860         0.00000000    
   13.1241789         0.00000000    
   13.2509708         0.00000000    
   13.3777637         0.00000000    
   13.5045567         0.00000000    
   13.6313496         0.00000000    
   13.7581415         0.00000000    
   13.8849344         0.00000000    
   14.0117273         0.00000000    
   14.1385202         0.00000000    
   14.2653122         0.00000000    
   14.3921051         0.00000000    
   14.5188980         0.00000000    
   14.6456909         0.00000000    
   14.7724829         0.00000000    
   14.8992758         0.00000000    
   15.0260687         0.00000000    
   15.1528606         0.00000000    
   15.2796535         0.00000000    
   15.4064465         0.00000000    
   15.5332394         0.00000000    
   15.6600313         0.00000000    
   15.7868242         0.00000000    
   15.9136171         0.00000000    
   16.0404091         0.00000000    
   16.1672020         0.00000000    
   16.2939949         0.00000000    
   16.4207878         0.00000000    
   16.5475807         0.00000000    
   16.6743736         0.00000000    
   16.8011646         0.00000000    
   16.9279575         0.00000000    
   17.0547504         0.00000000    
   17.1815434         0.00000000    
   17.3083363         0.00000000    
   17.4351292         0.00000000    
   17.5619221         0.00000000    
   17.6887150         0.00000000    
   17.8155060         0.00000000    
   17.9422989         0.00000000    
   18.0690918         0.00000000    
   18.1958847         0.00000000    
   18.3226776         0.00000000    
   18.4494705         0.00000000    
   18.5762634         0.00000000    
   18.7030544         0.00000000    
   18.8298473         0.00000000    
   18.9566402         0.00000000    
   19.0834332         0.00000000    
   19.2102261         0.00000000    
   19.3370190         0.00000000    
   19.4638119         0.00000000    
   19.5906048         0.00000000    
   19.7173958         0.00000000    
   19.8441887         0.00000000    
   19.9709816         0.00000000    
   20.0977745         0.00000000    
   20.2245674         0.00000000    
   20.3513603         0.00000000    
   20.4781532         0.00000000    
   20.6049442         0.00000000    
   20.7317371         0.00000000    
   20.8585300         0.00000000    
   20.9853230         0.00000000    
   21.1121159         0.00000000    
   21.2389088         0.00000000    
   21.3657017         0.00000000    
   21.4924946         0.00000000    
   21.6192856         0.00000000    
   21.7460785         0.00000000    
   21.8728714         0.00000000    
   21.9996643         0.00000000    
   22.1264572         0.00000000    
   22.2532501         0.00000000    
   22.3800430         0.00000000    
   22.5068340         0.00000000    
   22.6336269         0.00000000    
   22.7604198         0.00000000    
   22.8872128         0.00000000    
   23.0140057         0.00000000    
   23.1407986         0.00000000    
   23.2675915         0.00000000    
   23.3943844         0.00000000    
   23.5211754         0.00000000    
   23.6479683         0.00000000    
   23.7747612         0.00000000    
   23.9015541         0.00000000    
   24.0283470         0.00000000    
   24.1551399         0.00000000    
   24.2819328         0.00000000    
   24.4087238         0.00000000    
   24.5355167         0.00000000    
   24.6623096         0.00000000    
   24.7891026         0.00000000    
   24.9158955         0.00000000    
   25.0426884         0.00000000    
   25.1694813         0.00000000    
   25.2962742         0.00000000    
   25.4230652         0.00000000    
   25.5498581         0.00000000    
   25.6766510         0.00000000    
   25.8034439         0.00000000    
   25.9302368         0.00000000    
   26.0570297         0.00000000    
   26.1838226         0.00000000    
   26.3106136         0.00000000    
   26.4374065         0.00000000    
   26.5641994         0.00000000    
   26.6909924         0.00000000    
   26.8177853         0.00000000    
   26.9445782         0.00000000    
   27.0713711         0.00000000    
   27.1981640         0.00000000    
   27.3249550         0.00000000    
   27.4517479         0.00000000    
   27.5785408         0.00000000    
   27.7053337         0.00000000    
   27.8321266         0.00000000    
   27.9589195         0.00000000    
   28.0857124         0.00000000    
   28.2125034         0.00000000    
   28.3392963         0.00000000    
   28.4660892         0.00000000    
   28.5928822         0.00000000    
   28.7196751         0.00000000    
   28.8464680         0.00000000    
   28.9732609         0.00000000    
   29.1000538        -3.30148021E-33
   29.2268448        -1.30712915E-32
   29.3536377        -2.28410043E-32
   29.4804306        -3.13613165E-32
   29.6072235        -2.40981000E-32
   29.7340164         6.71377941E-33
   29.8608093         5.21041221E-32
   29.9876022         7.59714593E-32
   30.1143932         6.01587563E-32
   30.2411861         7.14049562E-33
   30.3679790        -7.95066175E-32
   30.4947720        -1.53329238E-31
   30.6215649        -1.38442460E-31
   30.7483578        -1.69612388E-32
   30.8751507         1.08961015E-31
   31.0019417         1.77843338E-31
   31.1287346         2.22487603E-31
   31.2555275         2.94270952E-31
   31.3823204         4.42566194E-31
   31.5091133         6.64083779E-31
   31.6359062         7.84548722E-31
   31.7626991         6.52164548E-31
   31.8894920         3.09454624E-31
   32.0162849        -1.00172514E-31
   32.1430779        -5.48469583E-31
   32.2698708        -8.77904320E-31
   32.3966637        -2.43477549E-30
   32.5234528        -4.72279287E-30
   32.6502457        -7.36244123E-30
   32.7770386        -8.55104394E-30
   32.9038315        -8.10153415E-30
   33.0306244        -5.80460352E-30
   33.1574173        -5.13564454E-30
   33.2842102        -6.65482448E-30
   33.4110031        -1.05680162E-29
   33.5377960        -1.24026450E-29
   33.6645889        -1.60387308E-29
   33.7913818        -1.48819165E-29
   33.9181747        -2.23506201E-30
   34.0449677         2.52435309E-29
   34.1717606         6.86094969E-29
   34.2985535         1.23603788E-28
   34.4253426         1.91191724E-28
   34.5521355         2.70077104E-28
   34.6789284         3.51888899E-28
   34.8057213         4.34626488E-28
   34.9325142         5.05516744E-28
   35.0593071         5.52357190E-28
   35.1861000         5.59551260E-28
   35.3128929         5.23029514E-28
   35.4396858         4.37824639E-28
   35.5664787         3.00269667E-28
   35.6932716         1.05211061E-28
   35.8200645        -1.50483295E-28
   35.9468575        -4.73011235E-28
   36.0736504        -8.67136861E-28
   36.2004433        -1.32867162E-27
   36.3272324        -1.83998012E-27
   36.4540253        -2.36306423E-27
   36.5808182        -2.86169482E-27
   36.7076111        -3.28335965E-27
   36.8344040        -3.56403775E-27
   36.9611969        -3.64361178E-27
   37.0879898        -3.46017003E-27
   37.2147827        -2.97227362E-27
   37.3415756        -2.13783501E-27
   37.4683685        -9.14584456E-28
   37.5951614         7.19458720E-28
   37.7219543         2.77260399E-27
   37.8487473         5.21671714E-27
   37.9755402         7.98444256E-27
   38.1023293         1.09666149E-26
   38.2291222         1.40050375E-26
   38.3559151         1.68958290E-26
   38.4827080         1.93942101E-26
   38.6095009         2.12266846E-26
   38.7362938         2.20936751E-26
   38.8630867         2.16949167E-26
   38.9898796         1.97303249E-26
   39.1166725         1.59281987E-26
   39.2434654         1.00603416E-26
   39.3702583         1.97507891E-27
   39.4970512        -8.36828425E-27
   39.6238441        -2.08605392E-26
   39.7506371        -3.52131392E-26
   39.8774300        -5.09335716E-26
   40.0042191        -6.73119665E-26
   40.1310120        -8.34228111E-26
   40.2578049        -9.81325463E-26
   40.3845978        -1.10133438E-25
   40.5113907        -1.17983763E-25
   40.6381836        -1.20161130E-25
   40.7649765        -1.15139636E-25
   40.8917694        -1.01484909E-25
   41.0185623        -7.79678441E-26
   41.1453552        -4.36968668E-26
   41.2721481         1.73831124E-27
   41.3989410         5.81214657E-26
   41.5257339         1.24474855E-25
   41.6525269         1.98946912E-25
   41.7793198         2.78731749E-25
   41.9061089         3.60035871E-25
   42.0329018         4.38098144E-25
   42.1596947         5.07273455E-25
   42.2864876         5.61184209E-25
   42.4132805         5.92950997E-25
   42.5400734         5.95504491E-25
   42.6668663         5.61978050E-25
   42.7936592         4.86180646E-25
   42.9204521         3.63135009E-25
   43.0472450         1.89660330E-25
   43.1740379        -3.50308384E-26
   43.3008308        -3.08756239E-25
   43.4276237        -6.25853498E-25
   43.5544167        -9.76776349E-25
   43.6812096        -1.34784360E-24
   43.8079987        -1.72118563E-24
   43.9347916        -2.07492585E-24
   44.0615845        -2.38364302E-24
   44.1883774        -2.61913220E-24
   44.3151703        -2.75149734E-24
   44.4419632        -2.75056865E-24
   44.5687561        -2.58764323E-24
   44.6955490        -2.23748898E-24
   44.8223419        -1.68057073E-24
   44.9491348        -9.05384437E-25
   45.0759277         8.92107760E-26
   45.2027206         1.29179267E-24
   45.3295135         2.67647548E-24
   45.4563065         4.20146766E-24
   45.5830994         5.80826254E-24
   45.7098885         7.42162391E-24
   45.8366814         8.95053337E-24
   45.9634743         1.02902314E-23
   46.0902672         1.13254299E-23
   46.2170601         1.19347855E-23
   46.3438530         1.19965841E-23
   46.4706459         1.13955557E-23
   46.5974388         1.00306559E-23
   46.7242317         7.82358088E-24
   46.8510246         4.72759607E-24
   46.9778175         7.36347963E-25
   47.1046104        -4.10790797E-24
   47.2314034        -9.70721112E-24
   47.3581963        -1.59025018E-23
   47.4849892        -2.24705861E-23
   47.6117783        -2.91240504E-23
   47.7385712        -3.55146568E-23
   47.8653641        -4.12407141E-23
   47.9921570        -4.58588131E-23
   48.1189499        -4.88999129E-23
   48.2457428        -4.98900533E-23
   48.3725357        -4.83749386E-23
   48.4993286        -4.39483466E-23
   48.6261215        -3.62830326E-23
   48.7529144        -2.51632035E-23
   48.8797073        -1.05171780E-23
   49.0065002         7.55169997E-24
   49.1332932         2.87377105E-23
   49.2600861         5.25110026E-23
   49.3868790         7.81037488E-23
   49.5136681         1.04506298E-22
   49.6404610         1.30475347E-22
   49.7672539         1.54556001E-22
   49.8940468         1.75118803E-22
   50.0208397         1.90412910E-22
   50.1476326         1.98635391E-22
   50.2744255         1.98015788E-22
   50.4012184         1.86914609E-22
   50.5280113         1.63933172E-22
   50.6548042         1.28031065E-22
   50.7815971         7.86464093E-23
   50.9083900         1.58134978E-23
   51.0351830        -5.97287486E-23
   51.1619759        -1.46445148E-22
   51.2887688        -2.41936546E-22
   51.4155579        -3.42904810E-22
   51.5423508        -4.45157011E-22
   51.6691437        -5.43657187E-22
   51.7959366        -6.32631055E-22
   51.9227295        -7.05726123E-22
   52.0495224        -7.56234174E-22
   52.1763153        -7.77369183E-22
   52.3031082        -7.62602717E-22
   52.4299011        -7.06046010E-22
   52.5566940        -6.02870122E-22
   52.6834869        -4.49748207E-22
   52.8102798        -2.45301461E-22
   52.9370728         9.47274194E-24
   53.0638657         3.10816725E-22
   53.1906586         6.51900213E-22
   53.3174477         1.02260789E-21
   53.4442406         1.40945811E-21
   53.5710335         1.79567865E-21
   53.6978264         2.16146676E-21
   53.8246193         2.48445212E-21
   53.9514122         2.74037586E-21
   54.0782051         2.90399202E-21
   54.2049980         2.95018469E-21
   54.3317909         2.85527864E-21
   54.4585838         2.59851903E-21
   54.5853767         2.16366538E-21
   54.7121696         1.54064520E-21
   54.8389626         7.27186523E-22
   54.9657555        -2.69654140E-22
   55.0925484        -1.43217569E-21
   55.2193375        -2.73101959E-21
   55.3461304        -4.12458830E-21
   55.4729233        -5.55899137E-21
   55.5997162        -6.96860892E-21
   55.7265091        -8.27738313E-21
   55.8533020        -9.40086243E-21
   55.9800949        -1.02490642E-20
   56.1068878        -1.07301336E-20
   56.2336807        -1.07547390E-20
   56.3604736        -1.02411382E-20
   56.4872665        -9.12073335E-21
   56.6140594        -7.34393324E-21
   56.7408524        -4.88605935E-21
   56.8676453        -1.75300191E-21
   56.9944382         2.01374252E-21
   57.1212273         6.33297515E-21
   57.2480202         1.10810819E-20
   57.3748131         1.60910475E-20
   57.5016060         2.11535641E-20
   57.6283989         2.60205187E-20
   57.7551918         3.04111660E-20
   57.8819847         3.40209951E-20
   58.0087776         3.65334302E-20
   58.1355705         3.76341297E-20
   58.2623634         3.70276124E-20
   58.3891563         3.44557787E-20
   58.5159492         2.97175750E-20
   58.6427422         2.26890391E-20
   58.7695351         1.33426987E-20
   58.8963280         1.76520484E-21
   59.0231171        -1.18280486E-20
   59.1499100        -2.70825718E-20
   59.2767029        -4.34999582E-20
   59.4034958        -6.04397997E-20
   59.5302887        -7.71292995E-20
   59.6570816        -9.26813613E-20
   59.7838745        -1.06121747E-19
   59.9106674        -1.16425012E-19
   60.0374603        -1.22559228E-19
   60.1642532        -1.23538145E-19
   60.2910461        -1.18479548E-19
   60.4178391        -1.06667473E-19
   60.5446320        -8.76160497E-20
   60.6714249        -6.11313615E-20
   60.7982178        -2.73680460E-20
   60.9250069         1.31231194E-20
   61.0517998         5.93607684E-20
   61.1785927         1.09915385E-19
   61.3053856         1.62912317E-19
   61.4321785         2.16058374E-19
   61.5589714         2.66694300E-19
   61.6857643         3.11874259E-19
   61.8125572         3.48473149E-19
   61.9393501         3.73318708E-19
   62.0661430         3.83347601E-19
   62.1929359         3.75779053E-19
   62.3197289         3.48300889E-19
   62.4465218         2.99259341E-19
   62.5733147         2.27843824E-19
   62.7001076         1.34256157E-19
   62.8268967         1.98528404E-20
   62.9536896        -1.12750715E-19
   63.0804825        -2.59625240E-19
   63.2072754        -4.15532475E-19
   63.3340683        -5.73997843E-19
   63.4608612        -7.27457631E-19
   63.5876541        -8.67483437E-19
   63.7144470        -9.85084945E-19
   63.8412399        -1.07108392E-18
   63.9680328        -1.11655517E-18
   64.0948257        -1.11331531E-18
   64.2216187        -1.05444621E-18
   64.3484116        -9.34828863E-19
   64.4752045        -7.51660005E-19
   64.6019974        -5.04926969E-19
   64.7287903        -1.97805135E-19
   64.8555832         1.63049228E-19
   64.9823761         5.67342968E-19
   65.1091690         1.00115314E-18
   65.2359619         1.44711867E-18
   65.3627548         1.88483442E-18
   65.4895477         2.29145491E-18
   65.6163330         2.64250188E-18
   65.7431259         2.91286958E-18
   65.8699188         3.07799944E-18
   65.9967117         3.11518121E-18
   66.1235046         3.00494740E-18
   66.2502975         2.73248527E-18
   66.3770905         2.28900749E-18
   66.5038834         1.67300267E-18
   66.6306763         8.91287834E-19
   66.7574692        -4.02141803E-20
   66.8842621        -1.09605846E-18
   67.0110550        -2.24127503E-18
   67.1378479        -3.43184746E-18
   67.2646408        -4.61570587E-18
   67.3914337        -5.73424389E-18
   67.5182266        -6.72437040E-18
   67.6450195        -7.52103798E-18
   67.7718124        -8.06019347E-18
   67.8986053        -8.28206565E-18
   68.0253983        -8.13465296E-18
   68.1521912        -7.57725813E-18
   68.2789841        -6.58392713E-18
   68.4057770        -5.14657632E-18
   68.5325699        -3.27763390E-18
   68.6593628        -1.01199809E-18
   68.7861557         1.59186742E-18
   68.9129486         4.45186248E-18
   69.0397415         7.46332972E-18
   69.1665344         1.05013730E-17
   69.2933273         1.34244457E-17
   69.4201126         1.60791702E-17
   69.5469055         1.83063391E-17
   69.6736984         1.99478939E-17
   69.8004913         2.08546774E-17
   69.9272842         2.08946700E-17
   70.0540771         1.99613571E-17
   70.1808701         1.79818428E-17
   70.3076630         1.49242540E-17
   70.4344559         1.08040417E-17
   70.5612488         5.68870016E-18
   70.6880417        -2.99469910E-19
   70.8148346        -6.98292969E-18
   70.9416275        -1.41310821E-17
   71.0684204        -2.14652310E-17
   71.1952133        -2.86663974E-17
   71.3220062        -3.53859429E-17
   71.4487991        -4.12587267E-17
   71.5755920        -4.59185560E-17
   71.7023849        -4.90152886E-17
   71.8291779        -5.02330441E-17
   71.9559708        -4.93087260E-17
   72.0827637        -4.60500116E-17
   72.2095566        -4.03518423E-17
   72.3363495        -3.22105686E-17
   72.4631424        -2.17347016E-17
   72.5899353        -9.15153090E-18
   72.7167282         5.19122340E-18
   72.8435211         2.08292433E-17
   72.9703140         3.71913076E-17
   73.0971069         5.36150415E-17
   73.2238922         6.93684117E-17
   73.3506851         8.36766709E-17
   73.4774780         9.57539777E-17
   73.6042709         1.04838413E-16
   73.7310638         1.10229552E-16
   73.8578568         1.11326414E-16
   73.9846497         1.07664598E-16
   74.1114426         9.89503889E-17
   74.2382355         8.50901836E-17
   74.3650284         6.62132008E-17
   74.4918213         4.26860302E-17
   74.6186142         1.51173146E-17
   74.7454071        -1.56483332E-17
   74.8722000        -4.85478820E-17
   74.9989929        -8.23291408E-17
   75.1257858        -1.15591423E-16
   75.2525787        -1.46836430E-16
   75.3793716        -1.74528280E-16
   75.5061646        -1.97160061E-16
   75.6329575        -2.13324890E-16
   75.7597504        -2.21788086E-16
   75.8865433        -2.21557283E-16
   76.0133362        -2.11947152E-16
   76.1401291        -1.92634946E-16
   76.2669220        -1.63703636E-16
   76.3937149        -1.25669779E-16
   76.5205078        -7.94931686E-17
   76.6473007        -2.65667136E-17
   76.7740936         3.13144507E-17
   76.9008865         9.20051952E-17
   77.0276718         1.53082756E-16
   77.1544647         2.11937424E-16
   77.2812576         2.65878666E-16
   77.4080505         3.12252820E-16
   77.5348434         3.48567557E-16
   77.6616364         3.72617364E-16
   77.7884293         3.82604782E-16
   77.9152222         3.77250793E-16
   78.0420151         3.55887854E-16
   78.1688080         3.18531187E-16
   78.2956009         2.65921176E-16
   78.4223938         1.99535631E-16
   78.5491867         1.21566076E-16
   78.6759796         3.48591049E-17
   78.8027725        -5.71779268E-17
   78.9295654        -1.50705055E-16
   79.0563583        -2.41606407E-16
   79.1831512        -3.25671913E-16
   79.3099442        -3.98794017E-16
   79.4367371        -4.57173910E-16
   79.5635300        -4.97524336E-16
   79.6903229        -5.17261951E-16
   79.8171158        -5.14675483E-16
   79.9439087        -4.89063271E-16
   80.0707016        -4.40827895E-16
   80.1974945        -3.71521224E-16
   80.3242874        -2.83835658E-16
   80.4510803        -1.81534937E-16
   80.5778732        -6.93264174E-17
   80.7046585         4.73243065E-17
   80.8314514         1.62430506E-16
   80.9582443         2.69765779E-16
   81.0850372         3.63177976E-16
   81.2118301         4.36921511E-16
   81.3386230         4.85994153E-16
   81.4654160         5.06459369E-16
   81.5922089         4.95737044E-16
   81.7190018         4.52845836E-16
   81.8457947         3.78580264E-16
   81.9725876         2.75608216E-16
   82.0993805         1.48476207E-16
   82.2261734         3.51686219E-18
   82.3529663        -1.51346537E-16
   82.4797592        -3.06895998E-16
   82.6065521        -4.53010690E-16
   82.7333450        -5.79137761E-16
   82.8601379        -6.74832578E-16
   82.9869308        -7.30338330E-16
   83.1137238        -7.37186750E-16
   83.2405167        -6.88785699E-16
   83.3673096        -5.80964123E-16
   83.4941025        -4.12447791E-16
   83.6208954        -1.85225764E-16
   83.7476883         9.52081179E-17
   83.8744812         4.19773250E-16
   84.0012741         7.75892397E-16
   84.1280670         1.14776130E-15
   84.2548599         1.51681642E-15
   84.3816528         1.86237092E-15
   84.5084381         2.16243170E-15
   84.6352310         2.39465087E-15
   84.7620239         2.53739413E-15
   84.8888168         2.57087713E-15
   85.0156097         2.47832671E-15
   85.1424026         2.24710832E-15
   85.2691956         1.86977801E-15
   85.3959885         1.34498371E-15
   85.5227814         6.78172429E-16
   85.6495743        -1.17936209E-16
   85.7763672        -1.02318658E-15
   85.9031601        -2.01011739E-15
   86.0299530        -3.04446786E-15
   86.1567459        -4.08599885E-15
   86.2835388        -5.08969138E-15
   86.4103317        -6.00724321E-15
   86.5371246        -6.78886023E-15
   86.6639175        -7.38526671E-15
   86.7907104        -7.74988306E-15
   86.9175034        -7.84108140E-15
   87.0442963        -7.62441715E-15
   87.1710892        -7.07477324E-15
   87.2978821        -6.17828076E-15
   87.4246750        -4.93393981E-15
   87.5514679        -3.35484255E-15
   87.6782608        -1.46891649E-15
   87.8050537         6.80885211E-16
   87.9318466         3.03698518E-15
   88.0586395         5.52821135E-15
   88.1854324         8.07146928E-15
   88.3122177         1.05740213E-14
   88.4390106         1.29363268E-14
   88.5658035         1.50553838E-14
   88.6925964         1.68284813E-14
   88.8193893         1.81571778E-14
   88.9461823         1.89514965E-14
   89.0729752         1.91340118E-14
   89.1997681         1.86438440E-14
   89.3265610         1.74402576E-14
   89.4533539         1.55057360E-14
   89.5801468         1.28484530E-14
   89.7069397         9.50387907E-15
   89.8337326         5.53551320E-15
   89.9605255         1.03455874E-15
   90.0873184        -3.88138872E-15
   90.2141113        -9.07080976E-15
   90.3409042        -1.43717351E-14
   90.4676971        -1.96062106E-14
   90.5944901        -2.45857005E-14
   90.7212830        -2.91171574E-14
   90.8480759        -3.30097278E-14
   90.9748688        -3.60817604E-14
   91.1016617        -3.81679416E-14
   91.2284546        -3.91263289E-14
   91.3552475        -3.88449039E-14
   91.4820404        -3.72474946E-14
   91.6088333        -3.42987967E-14
   91.7356262        -3.00081988E-14
   91.8624191        -2.44322418E-14
   91.9892120        -1.76755634E-14
   92.1159973        -9.89015405E-15
   92.2427902        -1.27293403E-15
   92.3695831         7.93849273E-15
   92.4963760         1.74716893E-14
   92.6231689         2.70268850E-14
   92.7499619         3.62858106E-14
   92.8767548         4.49217452E-14
   93.0035477         5.26104530E-14
   93.1303406         5.90415642E-14
   93.2571335         6.39301912E-14
   93.3839264         6.70283463E-14
   93.5107193         6.81355810E-14
   93.6375122         6.71085434E-14
   93.7643051         6.38692319E-14
   93.8910980         5.84111616E-14
   94.0178909         5.08034709E-14
   94.1446838         4.11925776E-14
   94.2714767         2.98011026E-14
   94.3982697         1.69241299E-14
   94.5250626         2.92258427E-15
   94.6518555        -1.17860603E-14
   94.7786484        -2.67396019E-14
   94.9054413        -4.14451934E-14
   95.0322342        -5.53953618E-14
   95.1590271        -6.80852605E-14
   95.2858200        -7.90310336E-14
   95.4126129        -8.77881277E-14
   95.5394058        -9.39694625E-14
   95.6661987        -9.72621912E-14
   95.7929916        -9.74429142E-14
   95.9197769        -9.43903294E-14
   96.0465698        -8.80946723E-14
   96.1733627        -7.86638007E-14
   96.3001556        -6.63248956E-14
   96.4269485        -5.14220963E-14
   96.5537415        -3.44091719E-14
   96.6805344        -1.58381642E-14
   96.8073273         3.65701266E-15
   96.9341202         2.33804201E-14
   97.0609131         4.25979137E-14
   97.1877060         6.05636350E-14
   97.3144989         7.65484749E-14
   97.4412918         8.98696943E-14
   97.5680847         9.99203162E-14
   97.6948776         1.06197393E-13
   97.8216705         1.08327748E-13
   97.9484634         1.06090185E-13
   98.0752563         9.94329402E-14