  -4.50000000         0.00000000    
  -4.37320757         0.00000000    
  -4.24641466         0.00000000    
  -4.11962223         0.00000000    
  -3.99282932         0.00000000    
  -3.86603665         0.00000000    
  -3.73924398         0.00000000    
  -3.61245155         0.00000000    
  -3.48565888         0.00000000    
  -3.35886621         0.00000000    
  -3.23207355         0.00000000    
  -3.10528088         0.00000000    
  -2.97848821         0.00000000    
  -2.85169554         0.00000000    
  -2.72490287         0.00000000    
  -2.59811020         0.00000000    
  -2.47131753         0.00000000    
  -2.34452486         0.00000000    
  -2.21773219         0.00000000    
  -2.09093952         0.00000000    
  -1.96414697         0.00000000    
  -1.83735430         0.00000000    
  -1.71056163         0.00000000    
  -1.58376896         0.00000000    
  -1.45697629         0.00000000    
  -1.33018374         0.00000000    
  -1.20339108         0.00000000    
  -1.07659841         0.00000000    
 -0.949805737         0.00000000    
 -0.823013067         0.00000000    
 -0.696220458         0.00000000    
 -0.569427788         0.00000000    
 -0.442635119         0.00000000    
 -0.315842479         0.00000000    
 -0.189049825         0.00000000    
  -6.22571707E-02     0.00000000    
   6.45354837E-02     0.00000000    
  0.191328138         0.00000000    
  0.318120778         0.00000000    
  0.444913447         0.00000000    
  0.571706116         0.00000000    
  0.698498726         0.00000000    
  0.825291395         0.00000000    
  0.952084064         0.00000000    
   1.07887673         0.00000000    
   1.20566940         0.00000000    
   1.33246195         0.00000000    
   1.45925462         0.00000000    
   1.58604729         0.00000000    
   1.71283996         0.00000000    
   1.83963263         0.00000000    
   1.96642530         0.00000000    
   2.09321785         0.00000000    
   2.22001052         0.00000000    
   2.34680319         0.00000000    
   2.47359586         0.00000000    
   2.60038853         0.00000000    
   2.72718120         0.00000000    
   2.85397387         0.00000000    
   2.98076653         0.00000000    
   3.10755920         0.00000000    
   3.23435187         0.00000000    
   3.36114454         0.00000000    
   3.48793697         0.00000000    
   3.61472964         0.00000000    
   3.74152231         0.00000000    
   3.86831498         0.00000000    
   3.99510765         0.00000000    
   4.12190056         0.00000000    
   4.24869299         0.00000000    
   4.37548542         0.00000000    
   4.50227833         0.00000000    
   4.62907076         0.00000000    
   4.75586367         0.00000000    
   4.88265610         0.00000000    
   5.00944901         0.00000000    
   5.13624144         0.00000000    
   5.26303434         0.00000000    
   5.38982677         0.00000000    
   5.51661968         0.00000000    
   5.64341211         0.00000000    
   5.77020502         0.00000000    
   5.89699745         0.00000000    
   6.02379036         0.00000000    
   6.15058279         0.00000000    
   6.27737522         0.00000000    
   6.40416813         0.00000000    
   6.53096056         0.00000000    
   6.65775347         0.00000000    
   6.78454590         0.00000000    
   6.91133881         0.00000000    
   7.03813124         0.00000000    
   7.16492414         0.00000000    
   7.29171658         0.00000000    
   7.41850948         0.00000000    
   7.54530191         0.00000000    
   7.67209482         0.00000000    
   7.79888725         0.00000000    
   7.92567968         0.00000000    
   8.05247211         0.00000000    
   8.17926502         0.00000000    
   8.30605793         0.00000000    
   8.43285084         0.00000000    
   8.55964279         0.00000000    
   8.68643570         0.00000000    
   8.81322861         0.00000000    
   8.94002151         0.00000000    
   9.06681347         0.00000000    
   9.19360638         0.00000000    
   9.32039928         0.00000000    
   9.44719219         0.00000000    
   9.57398415         0.00000000    
   9.70077705         0.00000000    
   9.82756996         0.00000000    
   9.95436192         0.00000000    
   10.0811548         0.00000000    
   10.2079477         0.00000000    
   10.3347406         0.00000000    
   10.4615326         0.00000000    
   10.5883255         0.00000000    
   10.7151184         0.00000000    
   10.8419113         0.00000000    
   10.9687033         0.00000000    
   11.0954962         0.00000000    
   11.2222891         0.00000000    
   11.3490820         0.00000000    
   11.4758739         0.00000000    
   11.6026669         0.00000000    
   11.7294598         0.00000000    
   11.8562517         0.00000000    
   11.9830446         0.00000000    
   12.1098375         0.00000000    
   12.2366304         0.00000000    
   12.3634224         0.00000000    
   12.4902153         0.00000000    
   12.6170082         0.00000000    
   12.7438011         0.00000000    
   12.8705931         0.00000000    
   12.9973860         0.00000000    
   13.1241789         0.00000000    
   13.2509708         0.00000000    
   13.3777637         0.00000000    
   13.5045567         0.00000000    
   13.6313496         0.00000000    
   13.7581415         0.00000000    
   13.8849344         0.00000000    
   14.0117273         0.00000000    
   14.1385202         0.00000000    
   14.2653122         0.00000000    
   14.3921051         0.00000000    
   14.5188980         0.00000000    
   14.6456909         0.00000000    
   14.7724829         0.00000000    
   14.8992758         0.00000000    
   15.0260687         0.00000000    
   15.1528606         0.00000000    
   15.2796535         0.00000000    
   15.4064465         0.00000000    
   15.5332394         0.00000000    
   15.6600313         0.00000000    
   15.7868242         0.00000000    
   15.9136171         0.00000000    
   16.0404091         0.00000000    
   16.1672020         0.00000000    
   16.2939949         0.00000000    
   16.4207878         0.00000000    
   16.5475807         0.00000000    
   16.6743736         0.00000000    
   16.8011646         0.00000000    
   16.9279575         0.00000000    
   17.0547504         0.00000000    
   17.1815434         0.00000000    
   17.3083363         0.00000000    
   17.4351292         0.00000000    
   17.5619221         0.00000000    
   17.6887150         0.00000000    
   17.8155060         0.00000000    
   17.9422989         0.00000000    
   18.0690918         0.00000000    
   18.1958847         0.00000000    
   18.3226776         0.00000000    
   18.4494705         0.00000000    
   18.5762634         0.00000000    
   18.7030544         0.00000000    
   18.8298473         0.00000000    
   18.9566402         0.00000000    
   19.0834332         0.00000000    
   19.2102261         0.00000000    
   19.3370190         0.00000000    
   19.4638119         0.00000000    
   19.5906048         0.00000000    
   19.7173958         0.00000000    
   19.8441887         0.00000000    
   19.9709816         0.00000000    
   20.0977745         0.00000000    
   20.2245674         0.00000000    
   20.3513603         0.00000000    
   20.4781532         0.00000000    
   20.6049442         0.00000000    
   20.7317371         0.00000000    
   20.8585300         0.00000000    
   20.9853230         0.00000000    
   21.1121159         0.00000000    
   21.2389088         0.00000000    
   21.3657017         0.00000000    
   21.4924946         0.00000000    
   21.6192856         0.00000000    
   21.7460785         0.00000000    
   21.8728714         0.00000000    
   21.9996643         0.00000000    
   22.1264572         0.00000000    
   22.2532501         0.00000000    
   22.3800430         0.00000000    
   22.5068340         0.00000000    
   22.6336269         0.00000000    
   22.7604198         0.00000000    
   22.8872128         0.00000000    
   23.0140057         0.00000000    
   23.1407986         0.00000000    
   23.2675915         0.00000000    
   23.3943844         0.00000000    
   23.5211754         0.00000000    
   23.6479683         0.00000000    
   23.7747612         0.00000000    
   23.9015541         0.00000000    
   24.0283470         0.00000000    
   24.1551399         0.00000000    
   24.2819328         0.00000000    
   24.4087238         0.00000000    
   24.5355167         0.00000000    
   24.6623096         0.00000000    
   24.7891026         0.00000000    
   24.9158955         0.00000000    
   25.0426884         0.00000000    
   25.1694813         0.00000000    
   25.2962742         0.00000000    
   25.4230652         0.00000000    
   25.5498581         0.00000000    
   25.6766510         0.00000000    
   25.8034439         0.00000000    
   25.9302368         0.00000000    
   26.0570297         0.00000000    
   26.1838226         0.00000000    
   26.3106136         0.00000000    
   26.4374065         0.00000000    
   26.5641994         0.00000000    
   26.6909924         0.00000000    
   26.8177853         0.00000000    
   26.9445782         0.00000000    
   27.0713711         0.00000000    
   27.1981640         0.00000000    
   27.3249550         0.00000000    
   27.4517479         0.00000000    
   27.5785408         0.00000000    
   27.7053337         0.00000000    
   27.8321266         0.00000000    
   27.9589195         0.00000000    
   28.0857124         0.00000000    
   28.2125034         0.00000000    
   28.3392963         0.00000000    
   28.4660892         0.00000000    
   28.5928822         0.00000000    
   28.7196751         0.00000000    
   28.8464680         0.00000000    
   28.9732609         0.00000000    
   29.1000538         2.72159195E-33
   29.2268448         8.81981713E-33
   29.3536377         1.49182120E-32
   29.4804306         1.99869158E-32
   29.6072235         1.20445728E-32
   29.7340164        -1.36628737E-32
   29.8608093        -5.22553024E-32
   29.9876022        -7.68362000E-32
   30.1143932        -9.09982150E-32
   30.2411861        -9.11036510E-32
   30.3679790        -4.45054827E-32
   30.4947720         1.95333630E-32
   30.6215649         6.17963610E-32
   30.7483578         3.07021757E-32
   30.8751507        -2.66330873E-32
   31.0019417        -3.21141501E-32
   31.1287346         3.19119650E-32
   31.2555275         1.99073871E-31
   31.3823204         4.54729692E-31
   31.5091133         7.79186399E-31
   31.6359062         1.08099448E-30
   31.7626991         1.27559343E-30
   31.8894920         1.37797278E-30
   32.0162849         1.34676040E-30
   32.1430779         1.40650843E-30
   32.2698708         1.33925416E-30
   32.3966637         2.10419131E-30
   32.5234528         3.20871891E-30
   32.6502457         4.56324349E-30
   32.7770386         5.53666152E-30
   32.9038315         5.32970380E-30
   33.0306244         8.27070020E-31
   33.1574173        -2.05791652E-30
   33.2842102        -1.04742086E-30
   33.4110031         4.64067904E-30
   33.5377960         8.58373735E-30
   33.6645889         1.19482550E-29
   33.7913818         1.11391387E-29
   33.9181747         5.19094092E-30
   34.0449677        -5.46347844E-30
   34.1717606        -1.95571204E-29
   34.2985535        -3.96630105E-29
   34.4253426        -6.57572307E-29
   34.5521355        -9.17570683E-29
   34.6789284        -1.13648392E-28
   34.8057213        -1.24179822E-28
   34.9325142        -1.16882257E-28
   35.0593071        -9.03615876E-29
   35.1861000        -3.88863341E-29
   35.3128929         4.05748029E-29
   35.4396858         1.42646457E-28
   35.5664787         2.67942404E-28
   35.6932716         4.10170837E-28
   35.8200645         5.59681886E-28
   35.9468575         7.03970969E-28
   36.0736504         8.31367527E-28
   36.2004433         9.21120966E-28
   36.3272324         9.60396359E-28
   36.4540253         9.42751567E-28
   36.5808182         8.49753514E-28
   36.7076111         6.75295605E-28
   36.8344040         4.12240345E-28
   36.9611969         5.31725244E-29
   37.0879898        -4.02136026E-28
   37.2147827        -9.58133103E-28
   37.3415756        -1.61008870E-27
   37.4683685        -2.34414582E-27
   37.5951614        -3.13586885E-27
   37.7219543        -3.94142488E-27
   37.8487473        -4.70628292E-27
   37.9755402        -5.36109679E-27
   38.1023293        -5.82087366E-27
   38.2291222        -5.99292815E-27
   38.3559151        -5.78262353E-27
   38.4827080        -5.09875855E-27
   38.6095009        -3.86705894E-27
   38.7362938        -2.03598971E-27
   38.8630867         4.18870455E-28
   38.9898796         3.47782003E-27
   39.1166725         7.06946868E-27
   39.2434654         1.10695119E-26
   39.3702583         1.52890134E-26
   39.4970512         1.94794240E-26
   39.6238441         2.33365532E-26
   39.7506371         2.65079574E-26
   39.8774300         2.86038961E-26
   40.0042191         2.92170290E-26
   40.1310120         2.79466702E-26
   40.2578049         2.44226190E-26
   40.3845978         1.83426153E-26
   40.5113907         9.50669681E-27
   40.6381836        -2.13816261E-27
   40.7649765        -1.64639030E-26
   40.8917694        -3.31254650E-26
   41.0185623        -5.15319719E-26
   41.1453552        -7.08300211E-26
   41.2721481        -8.99009184E-26
   41.3989410        -1.07376961E-25
   41.5257339        -1.21676445E-25
   41.6525269        -1.31063730E-25
   41.7793198        -1.33736255E-25
   41.9061089        -1.27933246E-25
   42.0329018        -1.12067441E-25
   42.1596947        -8.48763243E-26
   42.2864876        -4.55839176E-26
   42.4132805         5.93298820E-27
   42.5400734         6.89874947E-26
   42.6668663         1.41946719E-25
   42.7936592         2.22131078E-25
   42.9204521         3.05764114E-25
   43.0472450         3.87985927E-25
   43.1740379         4.62945340E-25
   43.3008308         5.23976599E-25
   43.4276237         5.63872993E-25
   43.5544167         5.75253001E-25
   43.6812096         5.51018553E-25
   43.8079987         4.84891006E-25
   43.9347916         3.72006046E-25
   44.0615845         2.09542115E-25
   44.1883774        -2.65522299E-27
   44.3151703        -2.61492821E-25
   44.4419632        -5.60145921E-25
   44.5687561        -8.87714150E-25
   44.6955490        -1.22908089E-24
   44.8223419        -1.56501494E-24
   44.9491348        -1.87256646E-24
   45.0759277        -2.12578430E-24
   45.2027206        -2.29677543E-24
   45.3295135        -2.35710869E-24
   45.4563065        -2.27953783E-24
   45.5830994        -2.03999115E-24
   45.7098885        -1.61976553E-24
   45.8366814        -1.00780807E-24
   45.9634743        -2.02968783E-25
   46.0902672         7.83936638E-25
   46.2170601         1.92841841E-24
   46.3438530         3.19111374E-24
   46.4706459         4.51733427E-24
   46.5974388         5.83744133E-24
   46.7242317         7.06825288E-24
   46.8510246         8.11557775E-24
   46.9778175         8.87788007E-24
   47.1046104         9.25114617E-24
   47.2314034         9.13478367E-24
   47.3581963         8.43844984E-24
   47.4849892         7.08952530E-24
   47.6117783         5.04090086E-24
   47.7385712         2.27866318E-24
   47.8653641        -1.17084057E-24
   47.9921570        -5.23496971E-24
   48.1189499        -9.79060949E-24
   48.2457428        -1.46620528E-23
   48.3725357        -1.96218122E-23
   48.4993286        -2.43945280E-23
   48.6261215        -2.86644758E-23
   48.7529144        -3.20867816E-23
   48.8797073        -3.43022407E-23
   49.0065002        -3.49557583E-23
   49.1332932        -3.37175370E-23
   49.2600861        -3.03067517E-23
   49.3868790        -2.45161955E-23
   49.5136681        -1.62372723E-23
   49.6404610        -5.48326447E-24
   49.7672539         7.58995894E-24
   49.8940468         2.26681753E-23
   50.0208397         3.92691361E-23
   50.1476326         5.67406003E-23
   50.2744255         7.42676949E-23
   50.4012184         9.08905403E-23
   50.5280113         1.05532607E-22
   50.6548042         1.17040124E-22
   50.7815971         1.24232378E-22
   50.9083900         1.25961359E-22
   51.0351830         1.21179259E-22
   51.1619759         1.09011477E-22
   51.2887688         8.88318910E-23
   51.4155579         6.03366448E-23
   51.5423508         2.36129419E-23
   51.6691437        -2.08028080E-23
   51.7959366        -7.18801790E-23
   51.9227295        -1.28069965E-22
   52.0495224        -1.87301302E-22
   52.1763153        -2.47006107E-22
   52.3031082        -3.04172244E-22
   52.4299011        -3.55427529E-22
   52.5566940        -3.97153878E-22
   52.6834869        -4.25633347E-22
   52.8102798        -4.37218521E-22
   52.9370728        -4.28526561E-22
   53.0638657        -3.96649335E-22
   53.1906586        -3.39370864E-22
   53.3174477        -2.55384618E-22
   53.4442406        -1.44498012E-22
   53.5710335        -7.81521659E-24
   53.6978264         1.52117146E-22
   53.8246193         3.31208136E-22
   53.9514122         5.23782235E-22
   54.0782051         7.22606737E-22
   54.2049980         9.18992309E-22
   54.3317909         1.10298406E-21
   54.4585838         1.26363521E-21
   54.5853767         1.38936747E-21
   54.7121696         1.46842078E-21
   54.8389626         1.48937383E-21
   54.9657555         1.44173471E-21
   55.0925484         1.31657538E-21
   55.2193375         1.10719852E-21
   55.3461304         8.09802045E-22
   55.4729233         4.24122521E-22
   55.5997162        -4.59850687E-23
   55.7265091        -5.92057553E-22
   55.8533020        -1.20066932E-21
   55.9800949        -1.85323879E-21
   56.1068878        -2.52604763E-21
   56.2336807        -3.19048389E-21
   56.3604736        -3.81356798E-21
   56.4872665        -4.35875271E-21
   56.6140594        -4.78702588E-21
   56.7408524        -5.05832617E-21
   56.8676453        -5.13323812E-21
   56.9944382        -4.97496390E-21
   57.1212273        -4.55151245E-21
   57.2480202        -3.83805140E-21
   57.3748131        -2.81933728E-21
   57.5016060        -1.49212114E-21
   57.6283989         1.32574828E-22
   57.7551918         2.02748269E-21
   57.8819847         4.14750217E-21
   58.0087776         6.42872736E-21
   58.1355705         8.78819786E-21
   58.2623634         1.11245461E-20
   58.3891563         1.33196669E-20
   58.5159492         1.52415443E-20
   58.6427422         1.67482797E-20
   58.7695351         1.76933594E-20
   58.8963280         1.79321609E-20
   59.0231171         1.73295518E-20
   59.1499100         1.57683825E-20
   59.2767029         1.31587286E-20
   59.4034958         9.44735822E-21
   59.5302887         4.62711223E-21
   59.6570816        -1.25435902E-21
   59.7838745        -8.08711947E-21
   59.9106674        -1.56932997E-20
   60.0374603        -2.38239245E-20
   60.1642532        -3.21590148E-20
   60.2910461        -4.03113030E-20
   60.4178391        -4.78341778E-20
   60.5446320        -5.42344264E-20
   60.6714249        -5.89893966E-20
   60.7982178        -6.15692760E-20
   60.9250069        -6.14634551E-20
   61.0517998        -5.82108000E-20
   61.1785927        -5.14327819E-20
   61.3053856        -4.08681054E-20
   61.4321785        -2.64071465E-20
   61.5589714        -8.12471661E-21
   61.6857643         1.36914515E-20
   61.8125572         3.85186217E-20
   61.9393501         6.55854124E-20
   62.0661430         9.38695093E-20
   62.1929359         1.22108092E-19
   62.3197289         1.48823428E-19
   62.4465218         1.72364057E-19
   62.5733147         1.90962981E-19
   62.7001076         2.02811619E-19
   62.8268967         2.06149241E-19
   62.9536896         1.99364977E-19
   63.0804825         1.81108895E-19
   63.2072754         1.50408358E-19
   63.3340683         1.06783744E-19
   63.4608612         5.03567459E-20
   63.5876541        -1.80550926E-20
   63.7144470        -9.68659000E-20
   63.8412399        -1.83677407E-19
   63.9680328        -2.75272887E-19
   64.0948257        -3.67651875E-19
   64.2216187        -4.56115610E-19
   64.3484116        -5.35400303E-19
   64.4752045        -5.99866314E-19
   64.6019974        -6.43736096E-19
   64.7287903        -6.61377222E-19
   64.8555832        -6.47625809E-19
   64.9823761        -5.98135645E-19
   65.1091690        -5.09737335E-19
   65.2359619        -3.80795542E-19
   65.3627548        -2.11537573E-19
   65.4895477        -4.33700368E-21
   65.6163330         2.36074529E-19
   65.7431259         5.02486786E-19
   65.8699188         7.85202127E-19
   65.9967117         1.07216080E-18
   66.1235046         1.34920623E-18
   66.2502975         1.60050649E-18
   66.3770905         1.80912506E-18
   66.5038834         1.95773943E-18
   66.6306763         2.02948743E-18
   66.7574692         2.00891482E-18
   66.8842621         1.88299684E-18
   67.0110550         1.64217644E-18
   67.1378479         1.28138156E-18
   67.2646408         8.00952525E-19
   67.3914337         2.07426408E-19
   67.5182266        -4.85891889E-19
   67.6450195        -1.25862447E-18
   67.7718124        -2.08334412E-18
   67.8986053        -2.92596385E-18
   68.0253983        -3.74653509E-18
   68.1521912        -4.50045355E-18
   68.2789841        -5.14009247E-18
   68.4057770        -5.61680617E-18
   68.5325699        -5.88328199E-18
   68.6593628        -5.89614630E-18
   68.7861557        -5.61872150E-18
   68.9129486        -5.02383926E-18
   69.0397415        -4.09653051E-18
   69.1665344        -2.83647284E-18
   69.2933273        -1.26000949E-18
   69.4201126         5.98411045E-19
   69.5469055         2.68551982E-18
   69.6736984         4.92938475E-18
   69.8004913         7.24055509E-18
   69.9272842         9.51421403E-18
   70.0540771         1.16334400E-17
   70.1808701         1.34734867E-17
   70.3076630         1.49070238E-17
   70.4344559         1.58101876E-17
   70.5612488         1.60692473E-17
   70.6880417         1.55875867E-17
   70.8148346         1.42927512E-17
   70.9416275         1.21431247E-17
   71.0684204         9.13392271E-18
   71.1952133         5.30207015E-18
   71.3220062         7.29581934E-19
   71.4487991        -4.45490733E-18
   71.5755920        -1.00767564E-17
   71.7023849        -1.59183332E-17
   71.8291779        -2.17245588E-17
   71.9559708        -2.72109980E-17
   72.0827637        -3.20743749E-17
   72.2095566        -3.60053986E-17
   72.3363495        -3.87032382E-17
   72.4631424        -3.98914865E-17
   72.5899353        -3.93347211E-17
   72.7167282        -3.68548601E-17
   72.8435211        -3.23467490E-17
   72.9703140        -2.57918075E-17
   73.0971069        -1.72689338E-17
   73.2238922        -6.96185561E-18
   73.3506851         4.83794159E-18
   73.4774780         1.77333445E-17
   73.6042709         3.12291949E-17
   73.7310638         4.47456536E-17
   73.8578568         5.76373164E-17
   73.9846497         6.92177060E-17
   74.1114426         7.87885828E-17
   74.2382355         8.56728894E-17
   74.3650284         8.92507830E-17
   74.4918213         8.89961503E-17
   74.6186142         8.45130697E-17
   74.7454071         7.55692024E-17
   74.8722000         6.21251484E-17
   74.9989929         4.43571666E-17
   75.1257858         2.26714837E-17
   75.2525787        -2.29104959E-18
   75.3793716        -2.96616909E-17
   75.5061646        -5.83625818E-17
   75.6329575        -8.71378792E-17
   75.7597504        -1.14597218E-16
   75.8865433        -1.39270441E-16
   76.0133362        -1.59671997E-16
   76.1401291        -1.74373180E-16
   76.2669220        -1.82078970E-16
   76.3937149        -1.81706289E-16
   76.5205078        -1.72460289E-16
   76.6473007        -1.53903465E-16
   76.7740936        -1.26015275E-16
   76.9008865        -8.92362842E-17
   77.0276718        -4.44943363E-17
   77.1544647         6.79079921E-18
   77.2812576         6.27271176E-17
   77.4080505         1.20995374E-16
   77.5348434         1.78920371E-16
   77.6616364         2.33567032E-16
   77.7884293         2.81860113E-16
   77.9152222         3.20722699E-16
   78.0420151         3.47229484E-16
   78.1688080         3.58768746E-16
   78.2956009         3.53205248E-16
   78.4223938         3.29037122E-16
   78.5491867         2.85536368E-16
   78.6759796         2.22867471E-16
   78.8027725         1.42172852E-16
   78.9295654         4.56194277E-17
   79.0563583        -6.36006335E-17
   79.1831512        -1.81319459E-16
   79.3099442        -3.02496297E-16
   79.4367371        -4.21374142E-16
   79.5635300        -5.31687346E-16
   79.6903229        -6.26916295E-16
   79.8171158        -7.00580686E-16
   79.9439087        -7.46561181E-16
   80.0707016        -7.59438094E-16
   80.1974945        -7.34829828E-16
   80.3242874        -6.69717505E-16
   80.4510803        -5.62737297E-16
   80.5778732        -4.14423098E-16
   80.7046585        -2.27383374E-16
   80.8314514        -6.39758815E-18
   80.9582443         2.41581737E-16
   81.0850372         5.07529066E-16
   81.2118301         7.80555419E-16
   81.3386230         1.04822720E-15
   81.4654160         1.29698860E-15
   81.5922089         1.51268385E-15
   81.7190018         1.68115552E-15
   81.8457947         1.78890817E-15
   81.9725876         1.82380403E-15
   82.0993805         1.77577143E-15
   82.2261734         1.63748335E-15
   82.3529663         1.40498255E-15
   82.4797592         1.07821143E-15
   82.6065521         6.61420923E-16
   82.7333450         1.63419668E-16
   82.8601379        -4.02353832E-16
   82.9869308        -1.01796250E-15
   83.1137238        -1.66131600E-15
   83.2405167        -2.30673414E-15
   83.3673096        -2.92572401E-15
   83.4941025        -3.48795568E-15
   83.6208954        -3.96241250E-15
   83.7476883        -4.31868007E-15
   83.8744812        -4.52832792E-15
   84.0012741        -4.56633810E-15
   84.1280670        -4.41251480E-15
   84.2548599        -4.05281633E-15
   84.3816528        -3.48054774E-15
   84.5084381        -2.69734529E-15
   84.6352310        -1.71389451E-15
   84.7620239        -5.50331282E-16
   84.8888168         7.63722122E-16
   85.0156097         2.18951516E-15
   85.1424026         3.67994142E-15
   85.2691956         5.18072286E-15
   85.3959885         6.63199777E-15
   85.5227814         7.97027256E-15
   85.6495743         9.13068822E-15
   85.7763672         1.00495275E-14
   85.9031601         1.06668934E-14
   86.0299530         1.09294448E-14
   86.1567459         1.07930929E-14
   86.2835388         1.02255427E-14
   86.4103317         9.20857120E-15
   86.5371246         7.73990501E-15
   86.6639175         5.83463780E-15
   86.7907104         3.52604929E-15
   86.9175034         8.65782763E-16
   87.0442963        -2.07669609E-15
   87.1710892        -5.21536524E-15
   87.2978821        -8.44966356E-15
   87.4246750        -1.16672122E-14
   87.5514679        -1.47471926E-14
   87.6782608        -1.75642886E-14
   87.8050537        -1.99931065E-14
   87.9318466        -2.19128575E-14
   88.0586395        -2.32122552E-14
   88.1854324        -2.37943227E-14
   88.3122177        -2.35810517E-14
   88.4390106        -2.25176018E-14
   88.5658035        -2.05759533E-14
   88.6925964        -1.77577730E-14
   88.8193893        -1.40963630E-14
   88.9461823        -9.65757998E-15
   89.0729752        -4.53958245E-15
   89.1997681         1.12861200E-15
   89.3265610         7.18978845E-15
   89.4533539         1.34624003E-14
   89.5801468         1.97455408E-14
   89.7069397         2.58249080E-14
   89.8337326         3.14796237E-14
   89.9605255         3.64896407E-14
   90.0873184         4.06435580E-14
   90.2141113         4.37465683E-14
   90.3409042         4.56281978E-14
   90.4676971         4.61496482E-14
   90.5944901         4.52103463E-14
   90.7212830         4.27534730E-14
   90.8480759         3.87702701E-14
   90.9748688         3.33027876E-14
   91.1016617         2.64450124E-14
   91.2284546         1.83422190E-14
   91.3552475         9.18845332E-15
   91.4820404        -7.77788639E-16
   91.6088333        -1.12796506E-14
   91.7356262        -2.20096260E-14
   91.8624191        -3.26386596E-14
   91.9892120        -4.28263754E-14
   92.1159973        -5.22321884E-14
   92.2427902        -6.05267450E-14
   92.3695831        -6.74035412E-14
   92.4963760        -7.25900256E-14
   92.6231689        -7.58581362E-14
   92.7499619        -7.70333707E-14
   92.8767548        -7.60024842E-14
   93.0035477        -7.27192286E-14
   93.1303406        -6.72078631E-14
   93.2571335        -5.95643055E-14
   93.3839264        -4.99547913E-14
   93.5107193        -3.86119766E-14
   93.6375122        -2.58285282E-14
   93.7643051        -1.19484627E-14
   93.8910980         2.64361227E-15
   94.0178909         1.75349779E-14
   94.1446838         3.22985250E-14
   94.2714767         4.65072486E-14
   94.3982697         5.97490942E-14
   94.5250626         7.16413691E-14
   94.6518555         8.18442536E-14
   94.7786484         9.00729415E-14
   94.9054413         9.61076108E-14
   95.0322342         9.98011149E-14
   95.1590271         1.01083733E-13
   95.2858200         9.99647820E-14
   95.4126129         9.65311205E-14
   95.5394058         9.09421938E-14
   95.6661987         8.34221405E-14
   95.7929916         7.42488075E-14
   95.9197769         6.37405507E-14
   96.0465698         5.22409569E-14
   96.1733627         4.01024225E-14
   96.3001556         2.76691732E-14
   96.4269485         1.52606538E-14
   96.5537415         3.15595646E-15
   96.6805344        -8.41954815E-15
   96.8073273        -1.93051582E-14
   96.9341202        -2.94119248E-14
   97.0609131        -3.87260821E-14
   97.1877060        -4.73078065E-14
   97.3144989        -5.52853695E-14
   97.4412918        -6.28447083E-14
   97.5680847        -7.02145454E-14
   97.6948776        -7.76475035E-14
   97.8216705        -8.53980989E-14
   97.9484634        -9.36983713E-14
   98.0752563        -1.02732330E-13