  -4.50000000         0.00000000    
  -4.37320757         0.00000000    
  -4.24641466         0.00000000    
  -4.11962223         0.00000000    
  -3.99282932        -2.82382732E-23
  -3.86603665        -9.87299181E-23
  -3.73924398         6.27486672E-22
  -3.61245155         6.42234256E-21
  -3.48565888         2.75882958E-20
  -3.35886621         7.59640475E-20
  -3.23207355         1.45723866E-19
  -3.10528088         1.86306678E-19
  -2.97848821         9.96926669E-20
  -2.85169554        -1.98273862E-19
  -2.72490287        -6.58235538E-19
  -2.59811020        -1.01855029E-18
  -2.47131753        -9.33676911E-19
  -2.34452486        -4.09085274E-19
  -2.21773219        -4.03512998E-19
  -2.09093952        -3.16983924E-18
  -1.96414697        -1.18138812E-17
  -1.83735430        -2.88569964E-17
  -1.71056163        -5.42401915E-17
  -1.58376896        -8.38414122E-17
  -1.45697629        -1.09719983E-16
  -1.33018374        -1.22705150E-16
  -1.20339108        -1.16820825E-16
  -1.07659841        -9.39358480E-17
 -0.949805737        -6.65066911E-17
 -0.823013067        -5.64885214E-17
 -0.696220458        -8.92710059E-17
 -0.569427788        -1.82598876E-16
 -0.442635119        -3.32029027E-16
 -0.315842479        -4.96912567E-16
 -0.189049825        -5.94047288E-16
  -6.22571707E-02    -5.08672031E-16
   6.45354837E-02    -1.31434169E-16
  0.191328138         5.77341733E-16
  0.318120778         1.50907358E-15
  0.444913447         2.34415923E-15
  0.571706116         2.54693702E-15
  0.698498726         1.45651212E-15
  0.825291395        -1.51323707E-15
  0.952084064        -6.59379701E-15
   1.07887673        -1.33784178E-14
   1.20566940        -2.06402414E-14
   1.33246195        -2.63520624E-14
   1.45925462        -2.79596174E-14
   1.58604729        -2.28802742E-14
   1.71283996        -9.11486395E-15
   1.83963263         1.41975478E-14
   1.96642530         4.64563080E-14
   2.09321785         8.56296235E-14
   2.22001052         1.28666676E-13
   2.34680319         1.72220094E-13
   2.47359586         2.13538266E-13
   2.60038853         2.51372734E-13
   2.72718120         2.86784350E-13
   2.85397387         3.23794539E-13
   2.98076653         3.69879610E-13
   3.10755920         4.36308541E-13
   3.23435187         5.38271034E-13
   3.36114454         6.94656192E-13
   3.48793697         9.27274642E-13
   3.61472964         1.25931221E-12
   3.74152231         1.71290694E-12
   3.86831498         2.30594753E-12
   3.99510765         3.04844474E-12
   4.12190056         3.93911292E-12
   4.24869299         4.96295930E-12
   4.37548542         6.09076114E-12
   4.50227833         7.28120949E-12
   4.62907076         8.48618571E-12
   4.75586367         9.65924736E-12
   4.88265610         1.07666757E-11
   5.00944901         1.17998528E-11
   5.13624144         1.27869009E-11
   5.26303434         1.38010168E-11
   5.38982677         1.49627203E-11
   5.51661968         1.64335334E-11
   5.64341211         1.83997591E-11
   5.77020502         2.10466297E-11
   5.89699745         2.45255569E-11
   6.02379036         2.89192663E-11
   6.15058279         3.42115121E-11
   6.27737522         4.02684275E-11
   6.40416813         4.68373396E-11
   6.53096056         5.35657213E-11
   6.65775347         6.00378497E-11
   6.78454590         6.58210292E-11
   6.91133881         7.05082728E-11
   7.03813124         7.37406317E-11
   7.16492414         7.51930393E-11
   7.29171658         7.45122436E-11
   7.41850948         7.12043965E-11
   7.54530191         6.44824541E-11
   7.67209482         5.30972488E-11
   7.79888725         3.51871726E-11
   7.92567968         8.18820272E-12
   8.05247211        -3.11559979E-11
   8.17926502        -8.66564320E-11
   8.30605793        -1.62405561E-10
   8.43285084        -2.62390248E-10
   8.55964279        -3.90039723E-10
   8.68643570        -5.47785206E-10
   8.81322861        -7.36718631E-10
   8.94002151        -9.56434154E-10
   9.06681347        -1.20511523E-09
   9.19360638        -1.47987167E-09
   9.32039928        -1.77729198E-09
   9.44719219        -2.09407980E-09
   9.57398415        -2.42761233E-09
   9.70077705        -2.77619883E-09
   9.82756996        -3.13880832E-09
   9.95436192        -3.51412077E-09
   10.0811548        -3.89873822E-09
   10.2079477        -4.28461311E-09
   10.3347406        -4.65580863E-09
   10.4615326        -4.98487962E-09
   10.5883255        -5.22926014E-09
   10.7151184        -5.32811173E-09
   10.8419113        -5.20013010E-09
   10.9687033        -4.74273154E-09
   11.0954962        -3.83296994E-09
   11.2222891        -2.33038655E-09
   11.3490820        -8.18769150E-11
   11.4758739         3.07158943E-09
   11.6026669         7.28653404E-09
   11.7294598         1.27072646E-08
   11.8562517         1.94552481E-08
   11.9830446         2.76180678E-08
   12.1098375         3.72387738E-08
   12.2366304         4.83060525E-08
   12.3634224         6.07465864E-08
   12.4902153         7.44205408E-08
   12.6170082         8.91218903E-08
   12.7438011         1.04585524E-07
   12.8705931         1.20503429E-07
   12.9973860         1.36552387E-07
   13.1241789         1.52435859E-07
   13.2509708         1.67942730E-07
   13.3777637         1.83024582E-07
   13.5045567         1.97894352E-07
   13.6313496         2.13145299E-07
   13.7581415         2.29891299E-07
   13.8849344         2.49927751E-07
   14.0117273         2.75908235E-07
   14.1385202         3.11534450E-07
   14.2653122         3.61754019E-07
   14.3921051         4.32960348E-07
   14.5188980         5.33186210E-07
   14.6456909         6.72284557E-07
   14.7724829         8.62086779E-07
   14.8992758         1.11653412E-06
   15.0260687         1.45176546E-06
   15.1528606         1.88616184E-06
   15.2796535         2.44034072E-06
   15.4064465         3.13708006E-06
   15.5332394         4.00117960E-06
   15.6600313         5.05926573E-06
   15.7868242         6.33947639E-06
   15.9136171         7.87114732E-06
   16.0404091         9.68433505E-06
   16.1672020         1.18093531E-05
   16.2939949         1.42761701E-05
   16.4207878         1.71138054E-05
   16.5475807         2.03496693E-05
   16.6743736         2.40088193E-05
   16.8011646         2.81133471E-05
   16.9279575         3.26815389E-05
   17.0547504         3.77273354E-05
   17.1815434         4.32596098E-05
   17.3083363         4.92817599E-05
   17.4351292         5.57910826E-05
   17.5619221         6.27786794E-05
   17.6887150         7.02291436E-05
   17.8155060         7.81206618E-05
   17.9422989         8.64252142E-05
   18.0690918         9.51089314E-05
   18.1958847         1.04132690E-04
   18.3226776         1.13452843E-04
   18.4494705         1.23022313E-04
   18.5762634         1.32791480E-04
   18.7030544         1.42709410E-04
   18.8298473         1.52725202E-04
   18.9566402         1.62789322E-04
   19.0834332         1.72854707E-04
   19.2102261         1.82878270E-04
   19.3370190         1.92821695E-04
   19.4638119         2.02652707E-04
   19.5906048         2.12345592E-04
   19.7173958         2.21881928E-04
   19.8441887         2.31250626E-04
   19.9709816         2.40448178E-04
   20.0977745         2.49478355E-04
   20.2245674         2.58351385E-04
   20.3513603         2.67083436E-04
   20.4781532         2.75695522E-04
   20.6049442         2.84212205E-04
   20.7317371         2.92660348E-04
   20.8585300         3.01067688E-04
   20.9853230         3.09461349E-04
   21.1121159         3.17866768E-04
   21.2389088         3.26306035E-04
   21.3657017         3.34797340E-04
   21.4924946         3.43353488E-04
   21.6192856         3.51982337E-04
   21.7460785         3.60685517E-04
   21.8728714         3.69459158E-04
   21.9996643         3.78294033E-04
   22.1264572         3.87176056E-04
   22.2532501         3.96087591E-04
   22.3800430         4.05007770E-04
   22.5068340         4.13914386E-04
   22.6336269         4.22784651E-04
   22.7604198         4.31596622E-04
   22.8872128         4.40330448E-04
   23.0140057         4.48969164E-04
   23.1407986         4.57499758E-04
   23.2675915         4.65913850E-04
   23.3943844         4.74207918E-04
   23.5211754         4.82383912E-04
   23.6479683         4.90448903E-04
   23.7747612         4.98415204E-04
   23.9015541         5.06299839E-04
   24.0283470         5.14124346E-04
   24.1551399         5.21913811E-04
   24.2819328         5.29696641E-04
   24.4087238         5.37503685E-04
   24.5355167         5.45367773E-04
   24.6623096         5.53323072E-04
   24.7891026         5.61404740E-04
   24.9158955         5.69647644E-04
   25.0426884         5.78087172E-04
   25.1694813         5.86757436E-04
   25.2962742         5.95691963E-04
   25.4230652         6.04922709E-04
   25.5498581         6.14478951E-04
   25.6766510         6.24387932E-04
   25.8034439         6.34673110E-04
   25.9302368         6.45353517E-04
   26.0570297         6.56443299E-04
   26.1838226         6.67949556E-04
   26.3106136         6.79871708E-04
   26.4374065         6.92200032E-04
   26.5641994         7.04913749E-04
   26.6909924         7.17979565E-04
   26.8177853         7.31350330E-04
   26.9445782         7.44963007E-04
   27.0713711         7.58737850E-04
   27.1981640         7.72576546E-04
   27.3249550         7.86362041E-04
   27.4517479         7.99957546E-04
   27.5785408         8.13206716E-04
   27.7053337         8.25933472E-04
   27.8321266         8.37943109E-04
   27.9589195         8.49024509E-04
   28.0857124         8.58950021E-04
   28.2125034         8.67479888E-04
   28.3392963         8.74363526E-04
   28.4660892         8.79344181E-04
   28.5928822         8.82160966E-04
   28.7196751         8.82553868E-04
   28.8464680         8.80267122E-04
   28.9732609         8.75053345E-04
   29.1000538         8.66677612E-04
   29.2268448         8.54920887E-04
   29.3536377         8.39584623E-04
   29.4804306         8.20493442E-04
   29.6072235         7.97497749E-04
   29.7340164         7.70477694E-04
   29.8608093         7.39344163E-04
   29.9876022         7.04041042E-04
   30.1143932         6.64546445E-04
   30.2411861         6.20873878E-04
   30.3679790         5.73072233E-04
   30.4947720         5.21226029E-04
   30.6215649         4.65455232E-04
   30.7483578         4.05914325E-04
   30.8751507         3.42791463E-04
   31.0019417         2.76307605E-04
   31.1287346         2.06714307E-04
   31.2555275         1.34292553E-04
   31.3823204         5.93508339E-05
   31.5091133        -1.77768798E-05
   31.6359062        -9.67336746E-05
   31.7626991        -1.77141279E-04
   31.8894920        -2.58603104E-04
   32.0162849        -3.40706581E-04
   32.1430779        -4.23025631E-04
   32.2698708        -5.05123637E-04
   32.3966637        -5.86556271E-04
   32.5234528        -6.66874694E-04
   32.6502457        -7.45628611E-04
   32.7770386        -8.22369300E-04
   32.9038315        -8.96653684E-04
   33.0306244        -9.68047767E-04
   33.1574173        -1.03612989E-03
   33.2842102        -1.10049453E-03
   33.4110031        -1.16075668E-03
   33.5377960        -1.21655525E-03
   33.6645889        -1.26755610E-03
   33.7913818        -1.31345680E-03
   33.9181747        -1.35398901E-03
   34.0449677        -1.38892233E-03
   34.1717606        -1.41806691E-03
   34.2985535        -1.44127489E-03
   34.4253426        -1.45844347E-03
   34.5521355        -1.46951608E-03
   34.6789284        -1.47448247E-03
   34.8057213        -1.47338083E-03
   34.9325142        -1.46629475E-03
   35.0593071        -1.45335402E-03
   35.1861000        -1.43473281E-03
   35.3128929        -1.41064718E-03
   35.4396858        -1.38135231E-03
   35.5664787        -1.34713901E-03
   35.6932716        -1.30833045E-03
   35.8200645        -1.26527762E-03
   35.9468575        -1.21835433E-03
   36.0736504        -1.16795336E-03
   36.2004433        -1.11448125E-03
   36.3272324        -1.05835311E-03
   36.4540253        -9.99988057E-04
   36.5808182        -9.39804362E-04
   36.7076111        -8.78214894E-04
   36.8344040        -8.15623032E-04
   36.9611969        -7.52418477E-04
   37.0879898        -6.88974513E-04
   37.2147827        -6.25644694E-04
   37.3415756        -5.62760746E-04
   37.4683685        -5.00630646E-04
   37.5951614        -4.39537369E-04
   37.7219543        -3.79738427E-04
   37.8487473        -3.21465603E-04
   37.9755402        -2.64925300E-04
   38.1023293        -2.10299288E-04
   38.2291222        -1.57746006E-04
   38.3559151        -1.07401880E-04
   38.4827080        -5.93827790E-05
   38.6095009        -1.37857987E-05
   38.7362938         2.93089433E-05
   38.8630867         6.98368895E-05
   38.9898796         1.07747430E-04
   39.1166725         1.43002806E-04
   39.2434654         1.75577123E-04
   39.3702583         2.05455610E-04
   39.4970512         2.32634338E-04
   39.6238441         2.57120206E-04
   39.7506371         2.78931024E-04
   39.8774300         2.98096071E-04
   40.0042191         3.14656791E-04
   40.1310120         3.28667287E-04
   40.2578049         3.40195314E-04
   40.3845978         3.49322683E-04
   40.5113907         3.56145960E-04
   40.6381836         3.60776350E-04
   40.7649765         3.63339728E-04
   40.8917694         3.63975851E-04
   41.0185623         3.62837425E-04
   41.1453552         3.60088452E-04
   41.2721481         3.55902128E-04
   41.3989410         3.50458082E-04
   41.5257339         3.43939668E-04
   41.6525269         3.36530415E-04
   41.7793198         3.28410097E-04
   41.9061089         3.19751533E-04
   42.0329018         3.10716248E-04
   42.1596947         3.01450986E-04
   42.2864876         2.92084616E-04
   42.4132805         2.82724854E-04
   42.5400734         2.73456157E-04
   42.6668663         2.64338247E-04
   42.7936592         2.55404972E-04
   42.9204521         2.46664829E-04
   43.0472450         2.38101682E-04
   43.1740379         2.29676720E-04
   43.3008308         2.21331313E-04
   43.4276237         2.12990737E-04
   43.5544167         2.04568089E-04
   43.6812096         1.95969536E-04
   43.8079987         1.87099329E-04
   43.9347916         1.77865237E-04
   44.0615845         1.68183979E-04
   44.1883774         1.57986375E-04
   44.3151703         1.47222003E-04
   44.4419632         1.35863447E-04
   44.5687561         1.23909616E-04
   44.6955490         1.11387999E-04
   44.8223419         9.83563223E-05
   44.9491348         8.49025819E-05
   45.0759277         7.11443063E-05
   45.2027206         5.72266472E-05
   45.3295135         4.33194109E-05
   45.4563065         2.96131730E-05
   45.5830994         1.63145723E-05
   45.7098885         3.64093739E-06
   45.8366814        -8.18540502E-06
   45.9634743        -1.89431685E-05
   46.0902672        -2.84182806E-05
   46.2170601        -3.64097687E-05
   46.3438530        -4.27353880E-05
   46.4706459        -4.72368192E-05
   46.5974388        -4.97841174E-05
   46.7242317        -5.02794828E-05
   46.8510246        -4.86601857E-05
   46.9778175        -4.49006584E-05
   47.1046104        -3.90134592E-05
   47.2314034        -3.10497089E-05
   47.3581963        -2.10982271E-05
   47.4849892        -9.28415830E-06
   47.6117783         4.23330175E-06
   47.7385712         1.92637563E-05
   47.8653641         3.55891061E-05
   47.9921570         5.29675017E-05
   48.1189499         7.11375906E-05
   48.2457428         8.98232538E-05
   48.3725357         1.08738204E-04
   48.4993286         1.27591222E-04
   48.6261215         1.46090781E-04
   48.7529144         1.63950332E-04
   48.8797073         1.80892966E-04
   49.0065002         1.96656198E-04
   49.1332932         2.10996252E-04
   49.2600861         2.23692477E-04
   49.3868790         2.34550855E-04
   49.5136681         2.43407267E-04
   49.6404610         2.50130601E-04
   49.7672539         2.54624669E-04
   49.8940468         2.56829691E-04
   50.0208397         2.56723433E-04
   50.1476326         2.54321203E-04
   50.2744255         2.49675359E-04
   50.4012184         2.42874128E-04
   50.5280113         2.34039413E-04
   50.6548042         2.23324620E-04
   50.7815971         2.10911123E-04
   50.9083900         1.97004643E-04
   51.0351830         1.81831158E-04
   51.1619759         1.65632548E-04
   51.2887688         1.48661638E-04
   51.4155579         1.31177439E-04
   51.5423508         1.13440408E-04
   51.6691437         9.57075245E-05
   51.7959366         7.82276766E-05
   51.9227295         6.12374351E-05
   52.0495224         4.49571598E-05
   52.1763153         2.95874524E-05
   52.3031082         1.53062992E-05
   52.4299011         2.26686279E-06
   52.5566940        -9.40441532E-06
   52.6834869        -1.96086821E-05
   52.8102798        -2.82751680E-05
   52.9370728        -3.53610340E-05
   53.0638657        -4.08504529E-05
   53.1906586        -4.47536004E-05
   53.3174477        -4.71045387E-05
   53.4442406        -4.79594382E-05
   53.5710335        -4.73938453E-05
   53.6978264        -4.55004265E-05
   53.8246193        -4.23858510E-05
   53.9514122        -3.81683494E-05
   54.0782051        -3.29748873E-05
   54.2049980        -2.69385218E-05
   54.3317909        -2.01960938E-05
   54.4585838        -1.28860011E-05
   54.5853767        -5.14626709E-06
   54.7121696         2.88730553E-06
   54.8389626         1.10825194E-05
   54.9657555         1.93122214E-05
   55.0925484         2.74553240E-05
   55.2193375         3.53979303E-05
   55.3461304         4.30342079E-05
   55.4729233         5.02673174E-05
   55.5997162         5.70102129E-05
   55.7265091         6.31862567E-05
   55.8533020         6.87303400E-05
   55.9800949         7.35893918E-05
   56.1068878         7.77229216E-05
   56.2336807         8.11038335E-05
   56.3604736         8.37185871E-05
   56.4872665         8.55674516E-05
   56.6140594         8.66646078E-05
   56.7408524         8.70375370E-05
   56.8676453         8.67266790E-05
   56.9944382         8.57843406E-05
   57.1212273         8.42735171E-05
   57.2480202         8.22663860E-05
   57.3748131         7.98424444E-05
   57.5016060         7.70866245E-05
   57.6283989         7.40870018E-05
   57.7551918         7.09326850E-05
   57.8819847         6.77116113E-05
   58.0087776         6.45082328E-05
   58.1355705         6.14016899E-05
   58.2623634         5.84639492E-05
   58.3891563         5.57583735E-05
   58.5159492         5.33384882E-05
   58.6427422         5.12473707E-05
   58.7695351         4.95172862E-05
   58.8963280         4.81696952E-05
   59.0231171         4.72158608E-05
   59.1499100         4.66576275E-05
   59.2767029         4.64887089E-05
   59.4034958         4.66959500E-05
   59.5302887         4.72611282E-05
   59.6570816         4.81624738E-05
   59.7838745         4.93763073E-05
   59.9106674         5.08786725E-05
   60.0374603         5.26466174E-05
   60.1642532         5.46591364E-05
   60.2910461         5.68978321E-05
   60.4178391         5.93473924E-05
   60.5446320         6.19950515E-05
   60.6714249         6.48302084E-05
   60.7982178         6.78433789E-05
   60.9250069         7.10247405E-05
   61.0517998         7.43624914E-05
   61.1785927         7.78410031E-05
   61.3053856         8.14387968E-05
   61.4321785         8.51268051E-05
   61.5589714         8.88664581E-05
   61.6857643         9.26083885E-05
   61.8125572         9.62914419E-05
   61.9393501         9.98420801E-05
   62.0661430         1.03174643E-04
   62.1929359         1.06192150E-04
   62.3197289         1.08787717E-04
   62.4465218         1.10846835E-04
   62.5733147         1.12250214E-04
   62.7001076         1.12877147E-04
   62.8268967         1.12609479E-04
   62.9536896         1.11335627E-04
   63.0804825         1.08955333E-04
   63.2072754         1.05383850E-04
   63.3340683         1.00556208E-04
   63.4608612         9.44312342E-05
   63.5876541         8.69949072E-05
   63.7144470         7.82631469E-05
   63.8412399         6.82836253E-05
   63.9680328         5.71369674E-05
   64.0948257         4.49366453E-05
   64.2216187         3.18280217E-05
   64.3484116         1.79863400E-05
   64.4752045         3.61366574E-06
   64.6019974        -1.10649935E-05
   64.7287903        -2.58063810E-05
   64.8555832        -4.03545419E-05
   64.9823761        -5.44464492E-05
   65.1091690        -6.78183715E-05
   65.2359619        -8.02121067E-05
   65.3627548        -9.13811236E-05
   65.4895477        -1.01096550E-04
   65.6163330        -1.09152621E-04
   65.7431259        -1.15371382E-04
   65.8699188        -1.19606899E-04
   65.9967117        -1.21748250E-04
   66.1235046        -1.21721961E-04
   66.2502975        -1.19492950E-04
   66.3770905        -1.15065035E-04
   66.5038834        -1.08480097E-04
   66.6306763        -9.98165197E-05
   66.7574692        -8.91867239E-05
   66.8842621        -7.67343299E-05
   67.0110550        -6.26301917E-05
   67.1378479        -4.70686646E-05
   67.2646408        -3.02631779E-05
   67.3914337        -1.24418175E-05
   67.5182266         6.15699128E-06
   67.6450195         2.52889331E-05
   67.7718124         4.47076527E-05
   67.8986053         6.41687075E-05
   68.0253983         8.34327730E-05
   68.1521912         1.02268787E-04
   68.2789841         1.20456272E-04
   68.4057770         1.37787792E-04
   68.5325699         1.54070513E-04
   68.6593628         1.69127728E-04
   68.7861557         1.82799893E-04
   68.9129486         1.94945736E-04
   69.0397415         2.05442702E-04
   69.1665344         2.14187865E-04
   69.2933273         2.21098104E-04
   69.4201126         2.26110918E-04
   69.5469055         2.29184530E-04
   69.6736984         2.30298538E-04
   69.8004913         2.29454177E-04
   69.9272842         2.26674820E-04
   70.0540771         2.22005910E-04
   70.1808701         2.15515087E-04
   70.3076630         2.07292222E-04
   70.4344559         1.97448739E-04
   70.5612488         1.86116813E-04
   70.6880417         1.73448454E-04
   70.8148346         1.59613584E-04
   70.9416275         1.44798338E-04
   71.0684204         1.29202308E-04
   71.1952133         1.13035967E-04
   71.3220062         9.65171639E-05
   71.4487991         7.98678157E-05
   71.5755920         6.33099553E-05
   71.7023849         4.70621162E-05
   71.8291779         3.13350756E-05
   71.9559708         1.63284694E-05
   72.0827637         2.22695417E-06
   72.2095566        -1.08028762E-05
   72.3363495        -2.26152661E-05
   72.4631424        -3.30875955E-05
   72.5899353        -4.21220102E-05
   72.7167282        -4.96464600E-05
   72.8435211        -5.56151463E-05
   72.9703140        -6.00084022E-05
   73.0971069        -6.28318739E-05
   73.2238922        -6.41154620E-05
   73.3506851        -6.39115897E-05
   73.4774780        -6.22933367E-05
   73.6042709        -5.93523255E-05
   73.7310638        -5.51962548E-05
   73.8578568        -4.99467133E-05
   73.9846497        -4.37365779E-05
   74.1114426        -3.67078901E-05
   74.2382355        -2.90093649E-05
   74.3650284        -2.07943558E-05
   74.4918213        -1.22186675E-05
   74.6186142        -3.43857869E-06
   74.7454071         5.39106486E-06
   74.8722000         1.41187948E-05
   74.9989929         2.25982985E-05
   75.1257858         3.06902512E-05
   75.2525787         3.82641483E-05
   75.3793716         4.51999695E-05
   75.5061646         5.13898631E-05
   75.6329575         5.67398783E-05
   75.7597504         6.11713840E-05
   75.8865433         6.46223707E-05
   76.0133362         6.70487861E-05
   76.1401291         6.84252955E-05
   76.2669220         6.87460706E-05
   76.3937149         6.80250596E-05
   76.5205078         6.62960520E-05
   76.6473007         6.36122859E-05
   76.7740936         6.00458006E-05
   76.9008865         5.56862360E-05
   77.0276718         5.06394936E-05
   77.1544647         4.50259467E-05
   77.2812576         3.89784145E-05
   77.4080505         3.26397058E-05
   77.5348434         2.61601544E-05
   77.6616364         1.96948822E-05
   77.7884293         1.34008606E-05
   77.9152222         7.43392911E-06
   78.0420151         1.94576796E-06
   78.1688080        -2.91924403E-06
   78.2956009        -7.02691796E-06
   78.4223938        -1.02563063E-05
   78.5491867        -1.25022616E-05
   78.6759796        -1.36781500E-05
   78.8027725        -1.37180059E-05
   78.9295654        -1.25783972E-05
   79.0563583        -1.02399636E-05
   79.1831512        -6.70843792E-06
   79.3099442        -2.01511125E-06
   79.4367371         3.78310983E-06
   79.5635300         1.06043353E-05
   79.6903229         1.83429220E-05
   79.8171158         2.68712447E-05
   79.9439087         3.60419726E-05
   80.0707016         4.56911112E-05
   80.1974945         5.56411906E-05
   80.3242874         6.57052951E-05
   80.4510803         7.56910231E-05
   80.5778732         8.54050377E-05
   80.7046585         9.46574655E-05
   80.8314514         1.03266575E-04
   80.9582443         1.11063178E-04
   81.0850372         1.17894888E-04
   81.2118301         1.23630030E-04
   81.3386230         1.28160958E-04
   81.4654160         1.31407054E-04
   81.5922089         1.33316731E-04
   81.7190018         1.33868962E-04
   81.8457947         1.33073903E-04
   81.9725876         1.30972563E-04
   82.0993805         1.27636158E-04
   82.2261734         1.23163860E-04
   82.3529663         1.17680625E-04
   82.4797592         1.11333640E-04
   82.6065521         1.04288680E-04
   82.7333450         9.67255037E-05
   82.8601379         8.88331924E-05
   82.9869308         8.08049881E-05
   83.1137238         7.28332161E-05
   83.2405167         6.51039591E-05
   83.3673096         5.77920582E-05
   83.4941025         5.10564496E-05
   83.6208954         4.50359003E-05
   83.7476883         3.98453813E-05
   83.8744812         3.55730263E-05
   84.0012741         3.22779924E-05
   84.1280670         2.99892945E-05
   84.2548599         2.87051625E-05
   84.3816528         2.83938880E-05
   84.5084381         2.89951495E-05
   84.6352310         3.04222940E-05
   84.7620239         3.25655710E-05
   84.8888168         3.52958377E-05
   85.0156097         3.84689301E-05
   85.1424026         4.19302705E-05
   85.2691956         4.55199261E-05
   85.3959885         4.90774291E-05
   85.5227814         5.24465868E-05
   85.6495743         5.54802064E-05
   85.7763672         5.80439919E-05
   85.9031601         6.00203311E-05
   86.0299530         6.13109660E-05
   86.1567459         6.18393824E-05
   86.2835388         6.15520985E-05
   86.4103317         6.04194829E-05
   86.5371246         5.84355075E-05
   86.6639175         5.56170307E-05
   86.7907104         5.20024914E-05
   86.9175034         4.76497917E-05
   87.0442963         4.26340412E-05
   87.1710892         3.70448324E-05
   87.2978821         3.09833194E-05
   87.4246750         2.45591746E-05
   87.5514679         1.78876307E-05
   87.6782608         1.10863793E-05
   87.8050537         4.27294708E-06
   87.9318466        -2.43795080E-06
   88.0586395        -8.93657852E-06
   88.1854324        -1.51201821E-05
   88.3122177        -2.08944803E-05
   88.4390106        -2.61748082E-05
   88.5658035        -3.08869930E-05
   88.6925964        -3.49677903E-05
   88.8193893        -3.83649458E-05
   88.9461823        -4.10371613E-05
   89.0729752        -4.29536958E-05
   89.1997681        -4.40938056E-05
   89.3265610        -4.44460929E-05
   89.4533539        -4.40078948E-05
   89.5801468        -4.27844752E-05
   89.7069397        -4.07885782E-05
   89.8337326        -3.80396741E-05
   89.9605255        -3.45638327E-05
   90.0873184        -3.03932920E-05
   90.2141113        -2.55664781E-05
   90.3409042        -2.01280473E-05
   90.4676971        -1.41290202E-05
   90.5944901        -7.62696072E-06
   90.7212830        -6.86158103E-07
   90.8480759         6.62223101E-06
   90.9748688         1.42201270E-05
   91.1016617         2.20229394E-05
   91.2284546         2.99397670E-05
   91.3552475         3.78743243E-05
   91.4820404         4.57259630E-05
   91.6088333         5.33911007E-05
   91.7356262         6.07649054E-05
   91.8624191         6.77433927E-05
   91.9892120         7.42255652E-05
   92.1159973         8.01160350E-05
   92.2427902         8.53272722E-05
   92.3695831         8.97822902E-05
   92.4963760         9.34168129E-05
   92.6231689         9.61816404E-05
   92.7499619         9.80440673E-05
   92.8767548         9.89896143E-05
   93.0035477         9.90226763E-05
   93.1303406         9.81669073E-05
   93.2571335         9.64650753E-05
   93.3839264         9.39781603E-05
   93.5107193         9.07841750E-05
   93.6375122         8.69761134E-05
   93.7643051         8.26599280E-05
   93.8910980         7.79518596E-05
   94.0178909         7.29752719E-05
   94.1446838         6.78581346E-05
   94.2714767         6.27293994E-05
   94.3982697         5.77163155E-05
   94.5250626         5.29413192E-05
   94.6518555         4.85194396E-05
   94.7786484         4.45556616E-05
   94.9054413         4.11430956E-05
   95.0322342         3.83609331E-05
   95.1590271         3.62732935E-05
   95.2858200         3.49281145E-05
   95.4126129         3.43567444E-05
   95.5394058         3.45734079E-05
   95.6661987         3.55757184E-05
   95.7929916         3.73448856E-05
   95.9197769         3.98466582E-05
   96.0465698         4.30320833E-05
   96.1733627         4.68390572E-05
   96.3001556         5.11933722E-05
   96.4269485         5.60106164E-05
   96.5537415         6.11975847E-05
   96.6805344         6.66540800E-05
   96.8073273         7.22746699E-05
   96.9341202         7.79506809E-05
   97.0609131         8.35717219E-05
   97.1877060         8.90277370E-05
   97.3144989         9.42105835E-05
   97.4412918         9.90158587E-05
   97.5680847         1.03344501E-04
   97.6948776         1.07104264E-04
   97.8216705         1.10211295E-04
   97.9484634         1.12591413E-04
   98.0752563         1.14181275E-04