  -4.50000000         0.00000000    
  -4.37320757         0.00000000    
  -4.24641466         0.00000000    
  -4.11962223         0.00000000    
  -3.99282932         1.38581656E-23
  -3.86603665        -4.67306559E-22
  -3.73924398        -5.00739236E-21
  -3.61245155        -2.43511956E-20
  -3.48565888        -7.36021561E-20
  -3.35886621        -1.44653533E-19
  -3.23207355        -1.45031709E-19
  -3.10528088         1.61620584E-19
  -2.97848821         1.11967581E-18
  -2.85169554         2.95422717E-18
  -2.72490287         5.37622275E-18
  -2.59811020         7.24549419E-18
  -2.47131753         6.61233541E-18
  -2.34452486         1.23878548E-18
  -2.21773219        -1.08019399E-17
  -2.09093952        -3.12056698E-17
  -1.96414697        -6.25535684E-17
  -1.83735430        -1.09466164E-16
  -1.71056163        -1.77263177E-16
  -1.58376896        -2.65516771E-16
  -1.45697629        -3.56666913E-16
  -1.33018374        -4.05164499E-16
  -1.20339108        -3.37530665E-16
  -1.07659841        -7.38180214E-17
 -0.949805737         4.27002199E-16
 -0.823013067         1.11024939E-15
 -0.696220458         1.78557489E-15
 -0.569427788         2.13880647E-15
 -0.442635119         1.82021303E-15
 -0.315842479         6.05047440E-16
 -0.189049825        -1.41682153E-15
  -6.22571707E-02    -3.69895519E-15
   6.45354837E-02    -5.23118231E-15
  0.191328138        -4.72943302E-15
  0.318120778        -1.02439847E-15
  0.444913447         6.43014982E-15
  0.571706116         1.70833569E-14
  0.698498726         2.90381360E-14
  0.825291395         3.91911167E-14
  0.952084064         4.38295437E-14
   1.07887673         3.96068269E-14
   1.20566940         2.46656672E-14
   1.33246195        -4.24522378E-16
   1.45925462        -3.22528903E-14
   1.58604729        -6.48973537E-14
   1.71283996        -9.10124637E-14
   1.83963263        -1.03447009E-13
   1.96642530        -9.69760500E-14
   2.09321785        -6.96750329E-14
   2.22001052        -2.35673721E-14
   2.34680319         3.55813503E-14
   2.47359586         9.91623979E-14
   2.60038853         1.56937316E-13
   2.72718120         1.98139600E-13
   2.85397387         2.12204630E-13
   2.98076653         1.89188441E-13
   3.10755920         1.20277323E-13
   3.23435187        -1.02319801E-15
   3.36114454        -1.76547172E-13
   3.48793697        -3.99953454E-13
   3.61472964        -6.52703857E-13
   3.74152231        -9.00896436E-13
   3.86831498        -1.09470809E-12
   3.99510765        -1.17206396E-12
   4.12190056        -1.06734185E-12
   4.24869299        -7.24565481E-13
   4.37548542        -1.12981219E-13
   4.50227833         7.58395950E-13
   4.62907076         1.83124262E-12
   4.75586367         2.99683368E-12
   4.88265610         4.10522701E-12
   5.00944901         4.98411685E-12
   5.13624144         5.46420374E-12
   5.26303434         5.40588624E-12
   5.38982677         4.72137607E-12
   5.51661968         3.38714105E-12
   5.64341211         1.44394989E-12
   5.77020502        -1.01493228E-12
   5.89699745        -3.86362470E-12
   6.02379036        -6.96542823E-12
   6.15058279        -1.01902480E-11
   6.27737522        -1.34229346E-11
   6.40416813        -1.65618005E-11
   6.53096056        -1.95112017E-11
   6.65775347        -2.21761429E-11
   6.78454590        -2.44690535E-11
   6.91133881        -2.63373854E-11
   7.03813124        -2.78153958E-11
   7.16492414        -2.90954049E-11
   7.29171658        -3.06038563E-11
   7.41850948        -3.30583338E-11
   7.54530191        -3.74772609E-11
   7.67209482        -4.51145961E-11
   7.79888725        -5.73004838E-11
   7.92567968        -7.51840465E-11
   8.05247211        -9.93932228E-11
   8.17926502        -1.29647390E-10
   8.30605793        -1.64372058E-10
   8.43285084        -2.00371955E-10
   8.55964279        -2.32614261E-10
   8.68643570        -2.54155919E-10
   8.81322861        -2.56228067E-10
   8.94002151        -2.28466066E-10
   9.06681347        -1.59258093E-10
   9.19360638        -3.61869215E-11
   9.32039928         1.53443536E-10
   9.44719219         4.21960911E-10
   9.57398415         7.80478737E-10
   9.70077705         1.23771471E-09
   9.82756996         1.79832393E-09
   9.95436192         2.46059084E-09
   10.0811548         3.21340443E-09
   10.2079477         4.03255607E-09
   10.3347406         4.87657559E-09
   10.4615326         5.68252068E-09
   10.5883255         6.36237729E-09
   10.7151184         6.80082701E-09
   10.8419113         6.85529677E-09
   10.9687033         6.35913322E-09
   11.0954962         5.12855181E-09
   11.2222891         2.97377589E-09
   11.3490820        -2.85775625E-10
   11.4758739        -4.80281903E-09
   11.6026669        -1.06812825E-08
   11.7294598        -1.79548749E-08
   11.8562517        -2.65674771E-08
   11.9830446        -3.63580241E-08
   12.1098375        -4.70528470E-08
   12.2366304        -5.82687463E-08
   12.3634224        -6.95297615E-08
   12.4902153        -8.03008078E-08
   12.6170082        -9.00408494E-08
   12.7438011        -9.82779014E-08
   12.8705931        -1.04707638E-07
   12.9973860        -1.09316602E-07
   13.1241789        -1.12530046E-07
   13.2509708        -1.15383202E-07
   13.3777637        -1.19713789E-07
   13.5045567        -1.28371212E-07
   13.6313496        -1.45437497E-07
   13.7581415        -1.76452119E-07
   13.8849344        -2.28631734E-07
   14.0117273        -3.11075809E-07
   14.1385202        -4.34945406E-07
   14.2653122        -6.13604527E-07
   14.3921051        -8.62713932E-07
   14.5188980        -1.20026232E-06
   14.6456909        -1.64653352E-06
   14.7724829        -2.22399399E-06
   14.8992758        -2.95710197E-06
   15.0260687        -3.87203727E-06
   15.1528606        -4.99634370E-06
   15.2796535        -6.35850711E-06
   15.4064465        -7.98745532E-06
   15.5332394        -9.91200613E-06
   15.6600313        -1.21602834E-05
   15.7868242        -1.47590681E-05
   15.9136171        -1.77331913E-05
   16.0404091        -2.11048755E-05
   16.1672020        -2.48931337E-05
   16.2939949        -2.91131782E-05
   16.4207878        -3.37758756E-05
   16.5475807        -3.88872759E-05
   16.6743736        -4.44481739E-05
   16.8011646        -5.04537711E-05
   16.9279575        -5.68933719E-05
   17.0547504        -6.37502089E-05
   17.1815434        -7.10013046E-05
   17.3083363        -7.86174569E-05
   17.4351292        -8.65632974E-05
   17.5619221        -9.47974404E-05
   17.6887150        -1.03272854E-04
   17.8155060        -1.11937115E-04
   17.9422989        -1.20733064E-04
   18.0690918        -1.29599415E-04
   18.1958847        -1.38471485E-04
   18.3226776        -1.47282175E-04
   18.4494705        -1.55963018E-04
   18.5762634        -1.64445184E-04
   18.7030544        -1.72660773E-04
   18.8298473        -1.80544041E-04
   18.9566402        -1.88032587E-04
   19.0834332        -1.95068744E-04
   19.2102261        -2.01600516E-04
   19.3370190        -2.07582911E-04
   19.4638119        -2.12978543E-04
   19.5906048        -2.17758745E-04
   19.7173958        -2.21903814E-04
   19.8441887        -2.25403375E-04
   19.9709816        -2.28256584E-04
   20.0977745        -2.30471924E-04
   20.2245674        -2.32066523E-04
   20.3513603        -2.33065832E-04
   20.4781532        -2.33502782E-04
   20.6049442        -2.33416547E-04
   20.7317371        -2.32851642E-04
   20.8585300        -2.31856757E-04
   20.9853230        -2.30483594E-04
   21.1121159        -2.28785866E-04
   21.2389088        -2.26817909E-04
   21.3657017        -2.24634452E-04
   21.4924946        -2.22289324E-04
   21.6192856        -2.19835158E-04
   21.7460785        -2.17323119E-04
   21.8728714        -2.14802654E-04
   21.9996643        -2.12321422E-04
   22.1264572        -2.09925420E-04
   22.2532501        -2.07659294E-04
   22.3800430        -2.05566175E-04
   22.5068340        -2.03688367E-04
   22.6336269        -2.02066731E-04
   22.7604198        -2.00741226E-04
   22.8872128        -1.99750517E-04
   23.0140057        -1.99131318E-04
   23.1407986        -1.98918191E-04
   23.2675915        -1.99142305E-04
   23.3943844        -1.99830814E-04
   23.5211754        -2.01005590E-04
   23.6479683        -2.02681913E-04
   23.7747612        -2.04867509E-04
   23.9015541        -2.07561199E-04
   24.0283470        -2.10751998E-04
   24.1551399        -2.14418236E-04
   24.2819328        -2.18527202E-04
   24.4087238        -2.23034906E-04
   24.5355167        -2.27886529E-04
   24.6623096        -2.33016690E-04
   24.7891026        -2.38351407E-04
   24.9158955        -2.43809045E-04
   25.0426884        -2.49302597E-04
   25.1694813        -2.54742248E-04
   25.2962742        -2.60037632E-04
   25.4230652        -2.65101116E-04
   25.5498581        -2.69850309E-04
   25.6766510        -2.74211372E-04
   25.8034439        -2.78121443E-04
   25.9302368        -2.81531014E-04
   26.0570297        -2.84406735E-04
   26.1838226        -2.86732015E-04
   26.3106136        -2.88509094E-04
   26.4374065        -2.89759046E-04
   26.5641994        -2.90522003E-04
   26.6909924        -2.90856202E-04
   26.8177853        -2.90836964E-04
   26.9445782        -2.90554512E-04
   27.0713711        -2.90112133E-04
   27.1981640        -2.89623043E-04
   27.3249550        -2.89207179E-04
   27.4517479        -2.88988289E-04
   27.5785408        -2.89090618E-04
   27.7053337        -2.89635092E-04
   27.8321266        -2.90736934E-04
   27.9589195        -2.92501907E-04
   28.0857124        -2.95024161E-04
   28.2125034        -2.98384432E-04
   28.3392963        -3.02647531E-04
   28.4660892        -3.07861657E-04
   28.5928822        -3.14057892E-04
   28.7196751        -3.21249536E-04
   28.8464680        -3.29432136E-04
   28.9732609        -3.38585087E-04
   29.1000538        -3.48671951E-04
   29.2268448        -3.59641796E-04
   29.3536377        -3.71431233E-04
   29.4804306        -3.83966137E-04
   29.6072235        -3.97163094E-04
   29.7340164        -4.10932174E-04
   29.8608093        -4.25178499E-04
   29.9876022        -4.39804135E-04
   30.1143932        -4.54710651E-04
   30.2411861        -4.69800201E-04
   30.3679790        -4.84977587E-04
   30.4947720        -5.00152062E-04
   30.6215649        -5.15238033E-04
   30.7483578        -5.30156423E-04
   30.8751507        -5.44836104E-04
   31.0019417        -5.59214037E-04
   31.1287346        -5.73235622E-04
   31.2555275        -5.86855866E-04
   31.3823204        -6.00037980E-04
   31.5091133        -6.12754317E-04
   31.6359062        -6.24985259E-04
   31.7626991        -6.36719225E-04
   31.8894920        -6.47951092E-04
   32.0162849        -6.58680801E-04
   32.1430779        -6.68913301E-04
   32.2698708        -6.78655750E-04
   32.3966637        -6.87916530E-04
   32.5234528        -6.96703559E-04
   32.6502457        -7.05022016E-04
   32.7770386        -7.12872948E-04
   32.9038315        -7.20251061E-04
   33.0306244        -7.27143488E-04
   33.1574173        -7.33527879E-04
   33.2842102        -7.39371346E-04
   33.4110031        -7.44629418E-04
   33.5377960        -7.49245402E-04
   33.6645889        -7.53150554E-04
   33.7913818        -7.56264024E-04
   33.9181747        -7.58493785E-04
   34.0449677        -7.59738206E-04
   34.1717606        -7.59887742E-04
   34.2985535        -7.58827606E-04
   34.4253426        -7.56440335E-04
   34.5521355        -7.52608932E-04
   34.6789284        -7.47220416E-04
   34.8057213        -7.40170246E-04
   34.9325142        -7.31364707E-04
   35.0593071        -7.20725453E-04
   35.1861000        -7.08193169E-04
   35.3128929        -6.93730253E-04
   35.4396858        -6.77323958E-04
   35.5664787        -6.58988720E-04
   35.6932716        -6.38767495E-04
   35.8200645        -6.16733276E-04
   35.9468575        -5.92988858E-04
   36.0736504        -5.67666953E-04
   36.2004433        -5.40928741E-04
   36.3272324        -5.12961997E-04
   36.4540253        -4.83978452E-04
   36.5808182        -4.54211200E-04
   36.7076111        -4.23910213E-04
   36.8344040        -3.93338443E-04
   36.9611969        -3.62767460E-04
   37.0879898        -3.32472264E-04
   37.2147827        -3.02726490E-04
   37.3415756        -2.73797603E-04
   37.4683685        -2.45941454E-04
   37.5951614        -2.19398033E-04
   37.7219543        -1.94386797E-04
   37.8487473        -1.71102743E-04
   37.9755402        -1.49713087E-04
   38.1023293        -1.30354252E-04
   38.2291222        -1.13129820E-04
   38.3559151        -9.81090852E-05
   38.4827080        -8.53262391E-05
   38.6095009        -7.47804661E-05
   38.7362938        -6.64366453E-05
   38.8630867        -6.02267537E-05
   38.9898796        -5.60518420E-05
   39.1166725        -5.37846317E-05
   39.2434654        -5.32724989E-05
   39.3702583        -5.43409151E-05
   39.4970512        -5.67972493E-05
   39.6238441        -6.04346424E-05
   39.7506371        -6.50361908E-05
   39.8774300        -7.03791084E-05
   40.0042191        -7.62389609E-05
   40.1310120        -8.23936934E-05
   40.2578049        -8.86276976E-05
   40.3845978        -9.47356239E-05
   40.5113907        -1.00525729E-04
   40.6381836        -1.05823201E-04
   40.7649765        -1.10472945E-04
   40.8917694        -1.14341863E-04
   41.0185623        -1.17320829E-04
   41.1453552        -1.19326003E-04
   41.2721481        -1.20299454E-04
   41.3989410        -1.20209734E-04
   41.5257339        -1.19051045E-04
   41.6525269        -1.16842770E-04
   41.7793198        -1.13627473E-04
   41.9061089        -1.09469554E-04
   42.0329018        -1.04452236E-04
   42.1596947        -9.86753294E-05
   42.2864876        -9.22520339E-05
   42.4132805        -8.53058300E-05
   42.5400734        -7.79672991E-05
   42.6668663        -7.03709738E-05
   42.7936592        -6.26525289E-05
   42.9204521        -5.49458418E-05
   43.0472450        -4.73807122E-05
   43.1740379        -4.00807876E-05
   43.3008308        -3.31619740E-05
   43.4276237        -2.67311771E-05
   43.5544167        -2.08853489E-05
   43.6812096        -1.57111608E-05
   43.8079987        -1.12846610E-05
   43.9347916        -7.67133315E-06
   44.0615845        -4.92627169E-06
   44.1883774        -3.09440043E-06
   44.3151703        -2.21075084E-06
   44.4419632        -2.30066598E-06
   44.5687561        -3.37987285E-06
   44.6955490        -5.45449439E-06
   44.8223419        -8.52082667E-06
   44.9491348        -1.25650504E-05
   45.0759277        -1.75628556E-05
   45.2027206        -2.34788986E-05
   45.3295135        -3.02663357E-05
   45.4563065        -3.78664299E-05
   45.5830994        -4.62082171E-05
   45.7098885        -5.52084530E-05
   45.8366814        -6.47717898E-05
   45.9634743        -7.47912636E-05
   46.0902672        -8.51492296E-05
   46.2170601        -9.57186276E-05
   46.3438530        -1.06364663E-04
   46.4706459        -1.16946911E-04
   46.5974388        -1.27321749E-04
   46.7242317        -1.37345109E-04
   46.8510246        -1.46875391E-04
   46.9778175        -1.55776477E-04
   47.1046104        -1.63920893E-04
   47.2314034        -1.71192718E-04
   47.3581963        -1.77490278E-04
   47.4849892        -1.82728676E-04
   47.6117783        -1.86841731E-04
   47.7385712        -1.89783736E-04
   47.8653641        -1.91530256E-04
   47.9921570        -1.92078980E-04
   48.1189499        -1.91449391E-04
   48.2457428        -1.89682571E-04
   48.3725357        -1.86839679E-04
   48.4993286        -1.83000855E-04
   48.6261215        -1.78262926E-04
   48.7529144        -1.72737477E-04
   48.8797073        -1.66548009E-04
   49.0065002        -1.59827425E-04
   49.1332932        -1.52715060E-04
   49.2600861        -1.45354075E-04
   49.3868790        -1.37888521E-04
   49.5136681        -1.30460685E-04
   49.6404610        -1.23208782E-04
   49.7672539        -1.16264579E-04
   49.8940468        -1.09751607E-04
   50.0208397        -1.03783350E-04
   50.1476326        -9.84620128E-05
   50.2744255        -9.38773446E-05
   50.4012184        -9.01059466E-05
   50.5280113        -8.72106393E-05
   50.6548042        -8.52401572E-05
   50.7815971        -8.42289155E-05
   50.9083900        -8.41969959E-05
   51.0351830        -8.51501318E-05
   51.1619759        -8.70798685E-05
   51.2887688        -8.99637744E-05
   51.4155579        -9.37655859E-05
   51.5423508        -9.84356448E-05
   51.6691437        -1.03911188E-04
   51.7959366        -1.10116918E-04
   51.9227295        -1.16965690E-04
   52.0495224        -1.24359241E-04
   52.1763153        -1.32189220E-04
   52.3031082        -1.40338685E-04
   52.4299011        -1.48683364E-04
   52.5566940        -1.57093775E-04
   52.6834869        -1.65437188E-04
   52.8102798        -1.73580091E-04
   52.9370728        -1.81390802E-04
   53.0638657        -1.88742299E-04
   53.1906586        -1.95514935E-04
   53.3174477        -2.01599396E-04
   53.4442406        -2.06899291E-04
   53.5710335        -2.11333769E-04
   53.6978264        -2.14839485E-04
   53.8246193        -2.17372362E-04
   53.9514122        -2.18908652E-04
   54.0782051        -2.19445617E-04
   54.2049980        -2.19001333E-04
   54.3317909        -2.17613866E-04
   54.4585838        -2.15339955E-04
   54.5853767        -2.12253071E-04
   54.7121696        -2.08440775E-04
   54.8389626        -2.04001859E-04
   54.9657555        -1.99043148E-04
   55.0925484        -1.93676096E-04
   55.2193375        -1.88013393E-04
   55.3461304        -1.82165808E-04
   55.4729233        -1.76238842E-04
   55.5997162        -1.70330430E-04
   55.7265091        -1.64528523E-04
   55.8533020        -1.58909417E-04
   55.9800949        -1.53536734E-04
   56.1068878        -1.48460967E-04
   56.2336807        -1.43719502E-04
   56.3604736        -1.39337455E-04
   56.4872665        -1.35328824E-04
   56.6140594        -1.31698092E-04
   56.7408524        -1.28442291E-04
   56.8676453        -1.25552935E-04
   56.9944382        -1.23018544E-04
   57.1212273        -1.20826546E-04
   57.2480202        -1.18965436E-04
   57.3748131        -1.17426454E-04
   57.5016060        -1.16204850E-04
   57.6283989        -1.15300827E-04
   57.7551918        -1.14719769E-04
   57.8819847        -1.14472219E-04
   58.0087776        -1.14572977E-04
   58.1355705        -1.15040173E-04
   58.2623634        -1.15893476E-04
   58.3891563        -1.17152224E-04
   58.5159492        -1.18833574E-04
   58.6427422        -1.20950026E-04
   58.7695351        -1.23507503E-04
   58.8963280        -1.26503437E-04
   59.0231171        -1.29924898E-04
   59.1499100        -1.33747511E-04
   59.2767029        -1.37934723E-04
   59.4034958        -1.42437479E-04
   59.5302887        -1.47194543E-04
   59.6570816        -1.52133725E-04
   59.7838745        -1.57173039E-04
   59.9106674        -1.62223208E-04
   60.0374603        -1.67189966E-04
   60.1642532        -1.71977023E-04
   60.2910461        -1.76489339E-04
   60.4178391        -1.80636256E-04
   60.5446320        -1.84334931E-04
   60.6714249        -1.87513186E-04
   60.7982178        -1.90112492E-04
   60.9250069        -1.92090156E-04
   61.0517998        -1.93421278E-04
   61.1785927        -1.94099761E-04
   61.3053856        -1.94138731E-04
   61.4321785        -1.93570726E-04
   61.5589714        -1.92446299E-04
   61.6857643        -1.90832681E-04
   61.8125572        -1.88811493E-04
   61.9393501        -1.86476012E-04
   62.0661430        -1.83927899E-04
   62.1929359        -1.81273732E-04
   62.3197289        -1.78621354E-04
   62.4465218        -1.76076253E-04
   62.5733147        -1.73737819E-04
   62.7001076        -1.71696025E-04
   62.8268967        -1.70028696E-04
   62.9536896        -1.68798899E-04
   63.0804825        -1.68053157E-04
   63.2072754        -1.67820443E-04
   63.3340683        -1.68111525E-04
   63.4608612        -1.68919403E-04
   63.5876541        -1.70220228E-04
   63.7144470        -1.71974927E-04
   63.8412399        -1.74131303E-04
   63.9680328        -1.76626651E-04
   64.0948257        -1.79390670E-04
   64.2216187        -1.82348478E-04
   64.3484116        -1.85423647E-04
   64.4752045        -1.88541220E-04
   64.6019974        -1.91630490E-04
   64.7287903        -1.94627195E-04
   64.8555832        -1.97475470E-04
   64.9823761        -2.00129245E-04
   65.1091690        -2.02552837E-04
   65.2359619        -2.04721364E-04
   65.3627548        -2.06620200E-04
   65.4895477        -2.08243990E-04
   65.6163330        -2.09595310E-04
   65.7431259        -2.10682745E-04
   65.8699188        -2.11518869E-04
   65.9967117        -2.12117884E-04
   66.1235046        -2.12493469E-04
   66.2502975        -2.12656581E-04
   66.3770905        -2.12613362E-04
   66.5038834        -2.12363826E-04
   66.6306763        -2.11900580E-04
   66.7574692        -2.11208244E-04
   66.8842621        -2.10263664E-04
   67.0110550        -2.09036210E-04
   67.1378479        -2.07489124E-04
   67.2646408        -2.05581251E-04
   67.3914337        -2.03269243E-04
   67.5182266        -2.00510010E-04
   67.6450195        -1.97263318E-04
   67.7718124        -1.93495041E-04
   67.8986053        -1.89179569E-04
   68.0253983        -1.84302524E-04
   68.1521912        -1.78863178E-04
   68.2789841        -1.72876084E-04
   68.4057770        -1.66372702E-04
   68.5325699        -1.59401825E-04
   68.6593628        -1.52029897E-04
   68.7861557        -1.44340345E-04
   68.9129486        -1.36432340E-04
   69.0397415        -1.28419080E-04
   69.1665344        -1.20425138E-04
   69.2933273        -1.12583773E-04
   69.4201126        -1.05033621E-04
   69.5469055        -9.79151228E-05
   69.6736984        -9.13667609E-05
   69.8004913        -8.55215621E-05
   69.9272842        -8.05034215E-05
   70.0540771        -7.64237921E-05
   70.1808701        -7.33786655E-05
   70.3076630        -7.14461203E-05
   70.4344559        -7.06842038E-05
   70.5612488        -7.11296016E-05
   70.6880417        -7.27966835E-05
   70.8148346        -7.56773370E-05
   70.9416275        -7.97413886E-05
   71.0684204        -8.49375647E-05
   71.1952133        -9.11949464E-05
   71.3220062        -9.84249782E-05
   71.4487991        -1.06523883E-04
   71.5755920        -1.15375195E-04
   71.7023849        -1.24852726E-04
   71.8291779        -1.34823393E-04
   71.9559708        -1.45150407E-04
   72.0827637        -1.55695961E-04
   72.2095566        -1.66323953E-04
   72.3363495        -1.76902526E-04
   72.4631424        -1.87306141E-04
   72.5899353        -1.97417321E-04
   72.7167282        -2.07128207E-04
   72.8435211        -2.16341316E-04
   72.9703140        -2.24970281E-04
   73.0971069        -2.32939899E-04
   73.2238922        -2.40186477E-04
   73.3506851        -2.46656855E-04
   73.4774780        -2.52308237E-04
   73.6042709        -2.57107255E-04
   73.7310638        -2.61029170E-04
   73.8578568        -2.64056958E-04
   73.9846497        -2.66180636E-04
   74.1114426        -2.67396099E-04
   74.2382355        -2.67704832E-04
   74.3650284        -2.67113588E-04
   74.4918213        -2.65633542E-04
   74.6186142        -2.63281108E-04
   74.7454071        -2.60077359E-04
   74.8722000        -2.56048923E-04
   74.9989929        -2.51228164E-04
   75.1257858        -2.45654053E-04
   75.2525787        -2.39372879E-04
   75.3793716        -2.32438659E-04
   75.5061646        -2.24914082E-04
   75.6329575        -2.16870540E-04
   75.7597504        -2.08388563E-04
   75.8865433        -1.99557617E-04
   76.0133362        -1.90475606E-04
   76.1401291        -1.81248077E-04
   76.2669220        -1.71986845E-04
   76.3937149        -1.62808588E-04
   76.5205078        -1.53832661E-04
   76.6473007        -1.45179059E-04
   76.7740936        -1.36965682E-04
   76.9008865        -1.29305903E-04
   77.0276718        -1.22305704E-04
   77.1544647        -1.16061208E-04
   77.2812576        -1.10656045E-04
   77.4080505        -1.06159183E-04
   77.5348434        -1.02623075E-04
   77.6616364        -1.00082092E-04
   77.7884293        -9.85517036E-05
   77.9152222        -9.80279074E-05
   78.0420151        -9.84875005E-05
   78.1688080        -9.98887335E-05
   78.2956009        -1.02172642E-04
   78.4223938        -1.05264829E-04
   78.5491867        -1.09077628E-04
   78.6759796        -1.13512921E-04
   78.8027725        -1.18464857E-04
   78.9295654        -1.23823091E-04
   79.0563583        -1.29475884E-04
   79.1831512        -1.35313341E-04
   79.3099442        -1.41230252E-04
   79.4367371        -1.47129016E-04
   79.5635300        -1.52921930E-04
   79.6903229        -1.58533119E-04
   79.8171158        -1.63900026E-04
   79.9439087        -1.68974308E-04
   80.0707016        -1.73722045E-04
   80.1974945        -1.78123533E-04
   80.3242874        -1.82172167E-04
   80.4510803        -1.85873330E-04
   80.5778732        -1.89242259E-04
   80.7046585        -1.92301988E-04
   80.8314514        -1.95080662E-04
   80.9582443        -1.97609028E-04
   81.0850372        -1.99917733E-04
   81.2118301        -2.02034746E-04
   81.3386230        -2.03983043E-04
   81.4654160        -2.05778706E-04
   81.5922089        -2.07429286E-04
   81.7190018        -2.08932877E-04
   81.8457947        -2.10277678E-04
   81.9725876        -2.11442079E-04
   82.0993805        -2.12395666E-04
   82.2261734        -2.13100153E-04
   82.3529663        -2.13511637E-04
   82.4797592        -2.13582593E-04
   82.6065521        -2.13264560E-04
   82.7333450        -2.12511019E-04
   82.8601379        -2.11279999E-04
   82.9869308        -2.09537044E-04
   83.1137238        -2.07257894E-04
   83.2405167        -2.04430457E-04
   83.3673096        -2.01056740E-04
   83.4941025        -1.97154193E-04
   83.6208954        -1.92756313E-04
   83.7476883        -1.87912534E-04
   83.8744812        -1.82687829E-04
   84.0012741        -1.77161142E-04
   84.1280670        -1.71423802E-04
   84.2548599        -1.65576959E-04
   84.3816528        -1.59728705E-04
   84.5084381        -1.53991190E-04
   84.6352310        -1.48477135E-04
   84.7620239        -1.43296580E-04
   84.8888168        -1.38553645E-04
   85.0156097        -1.34343369E-04
   85.1424026        -1.30749351E-04
   85.2691956        -1.27841326E-04
   85.3959885        -1.25673469E-04
   85.5227814        -1.24283397E-04
   85.6495743        -1.23691454E-04
   85.7763672        -1.23900929E-04
   85.9031601        -1.24898434E-04
   86.0299530        -1.26655112E-04
   86.1567459        -1.29128035E-04
   86.2835388        -1.32261892E-04
   86.4103317        -1.35991198E-04
   86.5371246        -1.40242308E-04
   86.6639175        -1.44935620E-04
   86.7907104        -1.49987958E-04
   86.9175034        -1.55314483E-04
   87.0442963        -1.60830808E-04
   87.1710892        -1.66454585E-04
   87.2978821        -1.72107189E-04
   87.4246750        -1.77714785E-04
   87.5514679        -1.83209500E-04
   87.6782608        -1.88530001E-04
   87.8050537        -1.93621832E-04
   87.9318466        -1.98437498E-04
   88.0586395        -2.02936586E-04
   88.1854324        -2.07085061E-04
   88.3122177        -2.10855040E-04
   88.4390106        -2.14224026E-04
   88.5658035        -2.17174049E-04
   88.6925964        -2.19691152E-04
   88.8193893        -2.21764509E-04
   88.9461823        -2.23385825E-04
   89.0729752        -2.24548668E-04
   89.1997681        -2.25248237E-04
   89.3265610        -2.25480879E-04
   89.4533539        -2.25244192E-04
   89.5801468        -2.24537056E-04
   89.7069397        -2.23359966E-04
   89.8337326        -2.21715367E-04
   89.9605255        -2.19608308E-04
   90.0873184        -2.17047156E-04
   90.2141113        -2.14044165E-04
   90.3409042        -2.10616650E-04
   90.4676971        -2.06787256E-04
   90.5944901        -2.02584997E-04
   90.7212830        -1.98045556E-04
   90.8480759        -1.93211672E-04
   90.9748688        -1.88133155E-04
   91.1016617        -1.82866919E-04
   91.2284546        -1.77476220E-04
   91.3552475        -1.72030079E-04
   91.4820404        -1.66602083E-04
   91.6088333        -1.61269243E-04
   91.7356262        -1.56110385E-04
   91.8624191        -1.51204295E-04
   91.9892120        -1.46628096E-04
   92.1159973        -1.42455305E-04
   92.2427902        -1.38753952E-04
   92.3695831        -1.35584894E-04
   92.4963760        -1.33000198E-04
   92.6231689        -1.31041728E-04
   92.7499619        -1.29740030E-04
   92.8767548        -1.29113701E-04
   93.0035477        -1.29168751E-04
   93.1303406        -1.29898617E-04
   93.2571335        -1.31284411E-04
   93.3839264        -1.33295427E-04
   93.5107193        -1.35890179E-04
   93.6375122        -1.39017473E-04
   93.7643051        -1.42617777E-04
   93.8910980        -1.46624705E-04
   94.0178909        -1.50966618E-04
   94.1446838        -1.55568283E-04
   94.2714767        -1.60352254E-04
   94.3982697        -1.65240606E-04
   94.5250626        -1.70155865E-04
   94.6518555        -1.75022622E-04
   94.7786484        -1.79768191E-04
   94.9054413        -1.84323522E-04
   95.0322342        -1.88624123E-04
   95.1590271        -1.92610198E-04
   95.2858200        -1.96227498E-04
   95.4126129        -1.99427537E-04
   95.5394058        -2.02167721E-04
   95.6661987        -2.04411946E-04
   95.7929916        -2.06130659E-04
   95.9197769        -2.07301011E-04
   96.0465698        -2.07907186E-04
   96.1733627        -2.07940699E-04
   96.3001556        -2.07400299E-04
   96.4269485        -2.06292287E-04
   96.5537415        -2.04630676E-04
   96.6805344        -2.02436859E-04
   96.8073273        -1.99739879E-04
   96.9341202        -1.96575944E-04
   97.0609131        -1.92988286E-04
   97.1877060        -1.89026541E-04
   97.3144989        -1.84746474E-04
   97.4412918        -1.80208852E-04
   97.5680847        -1.75479086E-04
   97.6948776        -1.70626066E-04
   97.8216705        -1.65721503E-04
   97.9484634        -1.60838536E-04
   98.0752563        -1.56051028E-04