  -4.50000000         0.00000000    
  -4.37320757         0.00000000    
  -4.24641466         0.00000000    
  -4.11962223         0.00000000    
  -3.99282932        -2.71012424E-25
  -3.86603665         4.42091586E-22
  -3.73924398         2.59980504E-21
  -3.61245155         5.59209112E-21
  -3.48565888        -1.85251501E-21
  -3.35886621        -4.32849720E-20
  -3.23207355        -1.18876853E-19
  -3.10528088        -1.02767207E-19
  -2.97848821         4.02220967E-19
  -2.85169554         2.12551234E-18
  -2.72490287         5.88767101E-18
  -2.59811020         1.18625848E-17
  -2.47131753         1.83746063E-17
  -2.34452486         2.07045723E-17
  -2.21773219         1.09092070E-17
  -2.09093952        -2.00394248E-17
  -1.96414697        -7.68975751E-17
  -1.83735430        -1.52243373E-16
  -1.71056163        -2.19342014E-16
  -1.58376896        -2.31767670E-16
  -1.45697629        -1.36270316E-16
  -1.33018374         9.86105368E-17
  -1.20339108         4.44755613E-16
  -1.07659841         7.85281810E-16
 -0.949805737         9.18502411E-16
 -0.823013067         6.14428965E-16
 -0.696220458        -2.77065271E-16
 -0.569427788        -1.69756213E-15
 -0.442635119        -3.28844279E-15
 -0.315842479        -4.39971613E-15
 -0.189049825        -4.23813020E-15
  -6.22571707E-02    -2.14228185E-15
   6.45354837E-02     2.08592239E-15
  0.191328138         7.90425058E-15
  0.318120778         1.39208637E-14
  0.444913447         1.80280714E-14
  0.571706116         1.77899636E-14
  0.698498726         1.10265927E-14
  0.825291395        -3.51646829E-15
  0.952084064        -2.55562021E-14
   1.07887673        -5.28728401E-14
   1.20566940        -8.12722285E-14
   1.33246195        -1.05027118E-13
   1.45925462        -1.17843913E-13
   1.58604729        -1.14282268E-13
   1.71283996        -9.14012925E-14
   1.83963263        -5.02610919E-14
   1.96642530         3.16704984E-15
   2.09321785         5.80765904E-14
   2.22001052         1.00091532E-13
   2.34680319         1.13638611E-13
   2.47359586         8.50491010E-14
   2.60038853         5.82397578E-15
   2.72718120        -1.24529415E-13
   2.85397387        -2.96546262E-13
   2.98076653        -4.89990047E-13
   3.10755920        -6.74266036E-13
   3.23435187        -8.10128765E-13
   3.36114454        -8.52853270E-13
   3.48793697        -7.57152641E-13
   3.61472964        -4.84076429E-13
   3.74152231        -9.76218431E-15
   3.86831498         6.64772165E-13
   3.99510765         1.50443742E-12
   4.12190056         2.43379449E-12
   4.24869299         3.33612153E-12
   4.37548542         4.05965886E-12
   4.50227833         4.43151158E-12
   4.62907076         4.27794649E-12
   4.75586367         3.44819312E-12
   4.88265610         1.83778188E-12
   5.00944901        -5.92593195E-13
   5.13624144        -3.80600542E-12
   5.26303434        -7.68783995E-12
   5.38982677        -1.20543801E-11
   5.51661968        -1.66705018E-11
   5.64341211        -2.12748950E-11
   5.77020502        -2.56104547E-11
   5.89699745        -2.94572110E-11
   6.02379036        -3.26641596E-11
   6.15058279        -3.51751683E-11
   6.27737522        -3.70437812E-11
   6.40416813        -3.84314698E-11
   6.53096056        -3.95865528E-11
   6.65775347        -4.08044432E-11
   6.78454590        -4.23760298E-11
   6.91133881        -4.45358264E-11
   7.03813124        -4.74259000E-11
   7.16492414        -5.10908781E-11
   7.29171658        -5.55160674E-11
   7.41850948        -6.07121228E-11
   7.54530191        -6.68415462E-11
   7.67209482        -7.43749645E-11
   7.79888725        -8.42627912E-11
   7.92567968        -9.81130940E-11
   8.05247211        -1.18376253E-10
   8.17926502        -1.48549770E-10
   8.30605793        -1.93428593E-10
   8.43285084        -2.59425870E-10
   8.55964279        -3.54979324E-10
   8.68643570        -4.91029606E-10
   8.81322861        -6.81513679E-10
   8.94002151        -9.43762624E-10
   9.06681347        -1.29863920E-09
   9.19360638        -1.77019366E-09
   9.32039928        -2.38460340E-09
   9.44719219        -3.16813686E-09
   9.57398415        -4.14394696E-09
   9.70077705        -5.32755129E-09
   9.82756996        -6.72098777E-09
   9.95436192        -8.30581737E-09
   10.0811548        -1.00352526E-08
   10.2079477        -1.18259926E-08
   10.3347406        -1.35504470E-08
   10.4615326        -1.50301922E-08
   10.5883255        -1.60317004E-08
   10.7151184        -1.62652949E-08
   10.8419113        -1.53883555E-08
   10.9687033        -1.30136124E-08
   11.0954962        -8.72316086E-09
   11.2222891        -2.08851825E-09
   11.3490820         7.30340544E-09
   11.4758739         1.98190211E-08
   11.6026669         3.57427012E-08
   11.7294598         5.52392834E-08
   11.8562517         7.83170719E-08
   11.9830446         1.04794843E-07
   12.1098375         1.34276803E-07
   12.2366304         1.66140865E-07
   12.3634224         1.99544786E-07
   12.4902153         2.33456817E-07
   12.6170082         2.66715546E-07
   12.7438011         2.98124462E-07
   12.8705931         3.26585649E-07
   12.9973860         3.51275247E-07
   13.1241789         3.71861944E-07
   13.2509708         3.88767319E-07
   13.3777637         4.03464924E-07
   13.5045567         4.18810657E-07
   13.6313496         4.39396018E-07
   13.7581415         4.71912642E-07
   13.8849344         5.25512007E-07
   14.0117273         6.12145982E-07
   14.1385202         7.46867670E-07
   14.2653122         9.48074899E-07
   14.3921051         1.23767870E-06
   14.5188980         1.64117523E-06
   14.6456909         2.18761056E-06
   14.7724829         2.90941739E-06
   14.8992758         3.84212808E-06
   15.0260687         5.02394141E-06
   15.1528606         6.49516096E-06
   15.2796535         8.29749843E-06
   15.4064465         1.04732580E-05
   15.5332394         1.30644357E-05
   15.6600313         1.61117059E-05
   15.7868242         1.96533674E-05
   15.9136171         2.37242821E-05
   16.0404091         2.83547615E-05
   16.1672020         3.35695477E-05
   16.2939949         3.93867849E-05
   16.4207878         4.58171162E-05
   16.5475807         5.28628589E-05
   16.6743736         6.05173263E-05
   16.8011646         6.87642532E-05
   16.9279575         7.75774315E-05
   17.0547504         8.69204014E-05
   17.1815434         9.67463930E-05
   17.3083363         1.06998421E-04
   17.4351292         1.17609452E-04
   17.5619221         1.28502797E-04
   17.6887150         1.39592797E-04
   17.8155060         1.50785374E-04
   17.9422989         1.61978882E-04
   18.0690918         1.73065404E-04
   18.1958847         1.83931566E-04
   18.3226776         1.94460110E-04
   18.4494705         2.04531549E-04
   18.5762634         2.14025538E-04
   18.7030544         2.22823001E-04
   18.8298473         2.30808029E-04
   18.9566402         2.37870074E-04
   19.0834332         2.43906135E-04
   19.2102261         2.48823111E-04
   19.3370190         2.52540165E-04
   19.4638119         2.54990882E-04
   19.5906048         2.56125437E-04
   19.7173958         2.55912717E-04
   19.8441887         2.54341809E-04
   19.9709816         2.51423568E-04
   20.0977745         2.47191143E-04
   20.2245674         2.41700662E-04
   20.3513603         2.35030908E-04
   20.4781532         2.27282537E-04
   20.6049442         2.18576446E-04
   20.7317371         2.09051970E-04
   20.8585300         1.98863869E-04
   20.9853230         1.88179212E-04
   21.1121159         1.77173817E-04
   21.2389088         1.66027865E-04
   21.3657017         1.54921858E-04
   21.4924946         1.44031830E-04
   21.6192856         1.33525551E-04
   21.7460785         1.23557751E-04
   21.8728714         1.14266710E-04
   21.9996643         1.05770916E-04
   22.1264572         9.81664125E-05
   22.2532501         9.15249620E-05
   22.3800430         8.58927888E-05
   22.5068340         8.12904400E-05
   22.6336269         7.77135137E-05
   22.7604198         7.51336775E-05
   22.8872128         7.35012436E-05
   23.0140057         7.27476363E-05
   23.1407986         7.27888764E-05
   23.2675915         7.35294016E-05
   23.3943844         7.48657476E-05
   23.5211754         7.66907178E-05
   23.6479683         7.88973266E-05
   23.7747612         8.13824881E-05
   23.9015541         8.40502325E-05
   24.0283470         8.68147981E-05
   24.1551399         8.96024358E-05
   24.2819328         9.23535044E-05
   24.4087238         9.50229223E-05
   24.5355167         9.75808143E-05
   24.6623096         1.00012250E-04
   24.7891026         1.02315855E-04
   24.9158955         1.04502651E-04
   25.0426884         1.06594620E-04
   25.1694813         1.08621804E-04
   25.2962742         1.10620902E-04
   25.4230652         1.12632137E-04
   25.5498581         1.14697170E-04
   25.6766510         1.16856951E-04
   25.8034439         1.19149357E-04
   25.9302368         1.21607816E-04
   26.0570297         1.24259517E-04
   26.1838226         1.27124134E-04
   26.3106136         1.30213259E-04
   26.4374065         1.33530004E-04
   26.5641994         1.37068142E-04
   26.6909924         1.40812903E-04
   26.8177853         1.44741076E-04
   26.9445782         1.48821739E-04
   27.0713711         1.53016692E-04
   27.1981640         1.57281960E-04
   27.3249550         1.61568867E-04
   27.4517479         1.65824953E-04
   27.5785408         1.69995910E-04
   27.7053337         1.74026296E-04
   27.8321266         1.77861191E-04
   27.9589195         1.81448457E-04
   28.0857124         1.84739067E-04
   28.2125034         1.87689569E-04
   28.3392963         1.90262770E-04
   28.4660892         1.92430103E-04
   28.5928822         1.94171793E-04
   28.7196751         1.95478700E-04
   28.8464680         1.96353154E-04
   28.9732609         1.96809575E-04
   29.1000538         1.96874564E-04
   29.2268448         1.96587338E-04
   29.3536377         1.95999688E-04
   29.4804306         1.95175133E-04
   29.6072235         1.94187422E-04
   29.7340164         1.93120417E-04
   29.8608093         1.92065228E-04
   29.9876022         1.91118874E-04
   30.1143932         1.90381557E-04
   30.2411861         1.89954575E-04
   30.3679790         1.89937462E-04
   30.4947720         1.90425140E-04
   30.6215649         1.91505984E-04
   30.7483578         1.93258529E-04
   30.8751507         1.95749570E-04
   31.0019417         1.99032293E-04
   31.1287346         2.03144256E-04
   31.2555275         2.08106329E-04
   31.3823204         2.13922089E-04
   31.5091133         2.20577262E-04
   31.6359062         2.28040240E-04
   31.7626991         2.36262247E-04
   31.8894920         2.45179079E-04
   32.0162849         2.54712562E-04
   32.1430779         2.64772272E-04
   32.2698708         2.75257684E-04
   32.3966637         2.86061288E-04
   32.5234528         2.97069608E-04
   32.6502457         3.08167597E-04
   32.7770386         3.19239654E-04
   32.9038315         3.30172596E-04
   33.0306244         3.40857659E-04
   33.1574173         3.51192954E-04
   33.2842102         3.61084327E-04
   33.4110031         3.70447873E-04
   33.5377960         3.79209261E-04
   33.6645889         3.87305801E-04
   33.7913818         3.94686154E-04
   33.9181747         4.01310012E-04
   34.0449677         4.07148735E-04
   34.1717606         4.12183115E-04
   34.2985535         4.16404771E-04
   34.4253426         4.19813179E-04
   34.5521355         4.22415615E-04
   34.6789284         4.24225640E-04
   34.8057213         4.25262609E-04
   34.9325142         4.25549399E-04
   35.0593071         4.25111706E-04
   35.1861000         4.23977908E-04
   35.3128929         4.22176934E-04
   35.4396858         4.19738033E-04
   35.5664787         4.16690396E-04
   35.6932716         4.13062487E-04
   35.8200645         4.08881053E-04
   35.9468575         4.04172111E-04
   36.0736504         3.98960110E-04
   36.2004433         3.93267837E-04
   36.3272324         3.87117296E-04
   36.4540253         3.80528596E-04
   36.5808182         3.73521238E-04
   36.7076111         3.66114196E-04
   36.8344040         3.58324818E-04
   36.9611969         3.50170914E-04
   37.0879898         3.41669685E-04
   37.2147827         3.32838186E-04
   37.3415756         3.23694345E-04
   37.4683685         3.14255594E-04
   37.5951614         3.04540474E-04
   37.7219543         2.94567639E-04
   37.8487473         2.84356589E-04
   37.9755402         2.73927435E-04
   38.1023293         2.63301074E-04
   38.2291222         2.52499100E-04
   38.3559151         2.41544360E-04
   38.4827080         2.30460369E-04
   38.6095009         2.19271853E-04
   38.7362938         2.08004596E-04
   38.8630867         1.96685534E-04
   38.9898796         1.85342724E-04
   39.1166725         1.74005560E-04
   39.2434654         1.62704673E-04
   39.3702583         1.51472166E-04
   39.4970512         1.40341857E-04
   39.6238441         1.29349384E-04
   39.7506371         1.18532385E-04
   39.8774300         1.07930784E-04
   40.0042191         9.75869552E-05
   40.1310120         8.75457190E-05
   40.2578049         7.78546018E-05
   40.3845978         6.85635896E-05
   40.5113907         5.97253820E-05
   40.6381836         5.13949417E-05
   40.7649765         4.36293740E-05
   40.8917694         3.64873267E-05
   41.0185623         3.00285592E-05
   41.1453552         2.43129707E-05
   41.2721481         1.93997748E-05
   41.3989410         1.53458441E-05
   41.5257339         1.22048077E-05
   41.6525269         1.00250882E-05
   41.7793198         8.84860856E-06
   41.9061089         8.70872373E-06
   42.0329018         9.62918693E-06
   42.1596947         1.16218389E-05
   42.2864876         1.46856628E-05
   42.4132805         1.88050071E-05
   42.5400734         2.39487108E-05
   42.6668663         3.00690808E-05
   42.7936592         3.71012902E-05
   42.9204521         4.49634535E-05
   43.0472450         5.35567742E-05
   43.1740379         6.27663831E-05
   43.3008308         7.24627462E-05
   43.4276237         8.25034222E-05
   43.5544167         9.27351648E-05
   43.6812096         1.02996761E-04
   43.8079987         1.13121772E-04
   43.9347916         1.22941885E-04
   44.0615845         1.32290297E-04
   44.1883774         1.41005381E-04
   44.3151703         1.48934079E-04
   44.4419632         1.55935879E-04
   44.5687561         1.61885910E-04
   44.6955490         1.66678205E-04
   44.8223419         1.70228566E-04
   44.9491348         1.72476735E-04
   45.0759277         1.73388151E-04
   45.2027206         1.72955100E-04
   45.3295135         1.71197127E-04
   45.4563065         1.68161016E-04
   45.5830994         1.63920078E-04
   45.7098885         1.58572657E-04
   45.8366814         1.52240376E-04
   45.9634743         1.45065424E-04
   46.0902672         1.37207666E-04
   46.2170601         1.28841173E-04
   46.3438530         1.20150376E-04
   46.4706459         1.11326066E-04
   46.5974388         1.02561215E-04
   46.7242317         9.40467799E-05
   46.8510246         8.59675492E-05
   46.9778175         7.84983640E-05
   47.1046104         7.18001975E-05
   47.2314034         6.60171063E-05
   47.3581963         6.12730946E-05
   47.4849892         5.76695384E-05
   47.6117783         5.52832680E-05
   47.7385712         5.41650443E-05
   47.8653641         5.43386923E-05
   47.9921570         5.58007996E-05
   48.1189499         5.85211201E-05
   48.2457428         6.24435634E-05
   48.3725357         6.74875046E-05
   48.4993286         7.35500435E-05
   48.6261215         8.05082236E-05
   48.7529144         8.82219902E-05
   48.8797073         9.65372601E-05
   49.0065002         1.05289451E-04
   49.1332932         1.14306960E-04
   49.2600861         1.23414953E-04
   49.3868790         1.32439061E-04
   49.5136681         1.41208991E-04
   49.6404610         1.49562198E-04
   49.7672539         1.57346934E-04
   49.8940468         1.64425292E-04
   50.0208397         1.70675819E-04
   50.1476326         1.75995650E-04
   50.2744255         1.80302435E-04
   50.4012184         1.83535536E-04
   50.5280113         1.85656856E-04
   50.6548042         1.86651407E-04
   50.7815971         1.86526973E-04
   50.9083900         1.85313751E-04
   51.0351830         1.83063021E-04
   51.1619759         1.79846029E-04
   51.2887688         1.75751789E-04
   51.4155579         1.70884945E-04
   51.5423508         1.65363439E-04
   51.6691437         1.59315576E-04
   51.7959366         1.52877110E-04
   51.9227295         1.46188337E-04
   52.0495224         1.39390948E-04
   52.1763153         1.32624831E-04
   52.3031082         1.26025174E-04
   52.4299011         1.19719538E-04
   52.5566940         1.13825219E-04
   52.6834869         1.08446962E-04
   52.8102798         1.03674909E-04
   52.9370728         9.95830560E-05
   53.0638657         9.62279373E-05
   53.1906586         9.36481956E-05
   53.3174477         9.18639489E-05
   53.4442406         9.08772854E-05
   53.5710335         9.06726345E-05
   53.6978264         9.12181640E-05
   53.8246193         9.24667911E-05
   53.9514122         9.43583291E-05
   54.0782051         9.68213208E-05
   54.2049980         9.97752577E-05
   54.3317909         1.03132879E-04
   54.4585838         1.06802603E-04
   54.5853767         1.10690838E-04
   54.7121696         1.14704068E-04
   54.8389626         1.18751122E-04
   54.9657555         1.22744983E-04
   55.0925484         1.26604340E-04
   55.2193375         1.30255081E-04
   55.3461304         1.33631285E-04
   55.4729233         1.36675939E-04
   55.5997162         1.39341661E-04
   55.7265091         1.41590659E-04
   55.8533020         1.43394718E-04
   55.9800949         1.44734993E-04
   56.1068878         1.45601589E-04
   56.2336807         1.45992832E-04
   56.3604736         1.45914746E-04
   56.4872665         1.45380152E-04
   56.6140594         1.44407910E-04
   56.7408524         1.43022015E-04
   56.8676453         1.41250901E-04
   56.9944382         1.39126540E-04
   57.1212273         1.36683739E-04
   57.2480202         1.33959533E-04
   57.3748131         1.30992616E-04
   57.5016060         1.27822830E-04
   57.6283989         1.24490616E-04
   57.7551918         1.21036872E-04
   57.8819847         1.17502379E-04
   58.0087776         1.13927534E-04
   58.1355705         1.10352106E-04
   58.2623634         1.06814870E-04
   58.3891563         1.03353224E-04
   58.5159492         1.00003010E-04
   58.6427422         9.67979795E-05
   58.7695351         9.37695222E-05
   58.8963280         9.09460141E-05
   59.0231171         8.83523098E-05
   59.1499100         8.60093132E-05
   59.2767029         8.39332206E-05
   59.4034958         8.21351714E-05
   59.5302887         8.06206517E-05
   59.6570816         7.93891668E-05
   59.7838745         7.84341973E-05
   59.9106674         7.77429232E-05
   60.0374603         7.72965359E-05
   60.1642532         7.70706465E-05
   60.2910461         7.70357947E-05
   60.4178391         7.71583072E-05
   60.5446320         7.74014479E-05
   60.6714249         7.77266760E-05
   60.7982178         7.80950286E-05
   60.9250069         7.84688455E-05
   61.0517998         7.88134130E-05
   61.1785927         7.90984850E-05
   61.3053856         7.92998399E-05
   61.4321785         7.94004736E-05
   61.5589714         7.93917643E-05
   61.6857643         7.92741484E-05
   61.8125572         7.90573322E-05
   61.9393501         7.87603349E-05
   62.0661430         7.84109288E-05
   62.1929359         7.80447444E-05
   62.3197289         7.77038586E-05
   62.4465218         7.74351647E-05
   62.5733147         7.72882704E-05
   62.7001076         7.73132851E-05
   62.8268967         7.75583176E-05
   62.9536896         7.80671253E-05
   63.0804825         7.88768521E-05
   63.2072754         8.00159396E-05
   63.3340683         8.15024177E-05
   63.4608612         8.33426311E-05
   63.5876541         8.55304388E-05
   63.7144470         8.80469233E-05
   63.8412399         9.08607108E-05
   63.9680328         9.39287929E-05
   64.0948257         9.71979825E-05
   64.2216187         1.00606674E-04
   64.3484116         1.04087238E-04
   64.4752045         1.07568500E-04
   64.6019974         1.10978704E-04
   64.7287903         1.14248265E-04
   64.8555832         1.17312753E-04
   64.9823761         1.20115197E-04
   65.1091690         1.22608602E-04
   65.2359619         1.24757527E-04
   65.3627548         1.26539497E-04
   65.4895477         1.27945619E-04
   65.6163330         1.28980857E-04
   65.7431259         1.29663269E-04
   65.8699188         1.30023196E-04
   65.9967117         1.30101485E-04
   66.1235046         1.29947701E-04
   66.2502975         1.29617445E-04
   66.3770905         1.29169886E-04
   66.5038834         1.28665095E-04
   66.6306763         1.28161351E-04
   66.7574692         1.27712468E-04
   66.8842621         1.27366016E-04
   67.0110550         1.27161140E-04
   67.1378479         1.27127612E-04
   67.2646408         1.27284904E-04
   67.3914337         1.27641935E-04
   67.5182266         1.28197469E-04
   67.6450195         1.28940723E-04
   67.7718124         1.29852531E-04
   67.8986053         1.30906818E-04
   68.0253983         1.32072237E-04
   68.1521912         1.33314054E-04
   68.2789841         1.34595743E-04
   68.4057770         1.35880851E-04
   68.5325699         1.37134601E-04
   68.6593628         1.38324845E-04
   68.7861557         1.39423108E-04
   68.9129486         1.40405100E-04
   69.0397415         1.41250581E-04
   69.1665344         1.41943456E-04
   69.2933273         1.42470846E-04
   69.4201126         1.42822668E-04
   69.5469055         1.42990408E-04
   69.6736984         1.42966426E-04
   69.8004913         1.42742923E-04
   69.9272842         1.42311255E-04
   70.0540771         1.41661192E-04
   70.1808701         1.40780670E-04
   70.3076630         1.39655822E-04
   70.4344559         1.38271076E-04
   70.5612488         1.36609859E-04
   70.6880417         1.34655595E-04
   70.8148346         1.32392728E-04
   70.9416275         1.29808483E-04
   71.0684204         1.26894010E-04
   71.1952133         1.23646329E-04
   71.3220062         1.20069490E-04
   71.4487991         1.16176016E-04
   71.5755920         1.11987880E-04
   71.7023849         1.07537126E-04
   71.8291779         1.02866084E-04
   71.9559708         9.80272307E-05
   72.0827637         9.30824608E-05
   72.2095566         8.81021479E-05
   72.3363495         8.31634607E-05
   72.4631424         7.83486175E-05
   72.5899353         7.37424925E-05
   72.7167282         6.94300688E-05
   72.8435211         6.54937394E-05
   72.9703140         6.20105639E-05
   73.0971069         5.90493764E-05
   73.2238922         5.66684539E-05
   73.3506851         5.49131328E-05
   73.4774780         5.38141066E-05
   73.6042709         5.33861603E-05
   73.7310638         5.36271873E-05
   73.8578568         5.45182411E-05
   73.9846497         5.60236913E-05
   74.1114426         5.80924461E-05
   74.2382355         6.06593385E-05
   74.3650284         6.36473997E-05
   74.4918213         6.69703732E-05
   74.6186142         7.05358034E-05
   74.7454071         7.42483171E-05
   74.8722000         7.80129485E-05
   74.9989929         8.17385080E-05
   75.1257858         8.53407473E-05
   75.2525787         8.87450296E-05
   75.3793716         9.18887235E-05
   75.5061646         9.47231383E-05
   75.6329575         9.72144553E-05
   75.7597504         9.93446010E-05
   75.8865433         1.01110876E-04
   76.0133362         1.02525453E-04
   76.1401291         1.03613966E-04
   76.2669220         1.04413601E-04
   76.3937149         1.04970582E-04
   76.5205078         1.05337582E-04
   76.6473007         1.05570609E-04
   76.7740936         1.05726125E-04
   76.9008865         1.05858009E-04
   77.0276718         1.06015010E-04
   77.1544647         1.06238527E-04
   77.2812576         1.06560808E-04
   77.4080505         1.07003572E-04
   77.5348434         1.07577463E-04
   77.6616364         1.08281827E-04
   77.7884293         1.09105109E-04
   77.9152222         1.10025940E-04
   78.0420151         1.11014495E-04
   78.1688080         1.12034410E-04
   78.2956009         1.13045004E-04
   78.4223938         1.14003640E-04
   78.5491867         1.14868068E-04
   78.6759796         1.15598872E-04
   78.8027725         1.16161529E-04
   78.9295654         1.16528216E-04
   79.0563583         1.16679243E-04
   79.1831512         1.16604220E-04
   79.3099442         1.16302414E-04
   79.4367371         1.15783150E-04
   79.5635300         1.15065508E-04
   79.6903229         1.14177572E-04
   79.8171158         1.13155511E-04
   79.9439087         1.12042078E-04
   80.0707016         1.10884874E-04
   80.1974945         1.09734734E-04
   80.3242874         1.08643420E-04
   80.4510803         1.07661901E-04
   80.5778732         1.06838204E-04
   80.7046585         1.06215986E-04
   80.8314514         1.05832783E-04
   80.9582443         1.05718871E-04
   81.0850372         1.05896266E-04
   81.2118301         1.06378146E-04
   81.3386230         1.07168235E-04
   81.4654160         1.08260996E-04
   81.5922089         1.09641689E-04
   81.7190018         1.11287089E-04
   81.8457947         1.13166265E-04
   81.9725876         1.15241732E-04
   82.0993805         1.17470860E-04
   82.2261734         1.19807468E-04
   82.3529663         1.22203230E-04
   82.4797592         1.24609491E-04
   82.6065521         1.26978746E-04
   82.7333450         1.29266264E-04
   82.8601379         1.31431210E-04
   82.9869308         1.33438094E-04
   83.1137238         1.35257374E-04
   83.2405167         1.36866423E-04
   83.3673096         1.38249670E-04
   83.4941025         1.39398675E-04
   83.6208954         1.40311982E-04
   83.7476883         1.40994089E-04
   83.8744812         1.41454817E-04
   84.0012741         1.41707889E-04
   84.1280670         1.41769589E-04
   84.2548599         1.41657307E-04
   84.3816528         1.41387834E-04
   84.5084381         1.40976030E-04
   84.6352310         1.40433578E-04
   84.7620239         1.39767784E-04
   84.8888168         1.38980715E-04
   85.0156097         1.38068732E-04
   85.1424026         1.37022289E-04
   85.2691956         1.35826034E-04
   85.3959885         1.34459711E-04
   85.5227814         1.32898946E-04
   85.6495743         1.31116860E-04
   85.7763672         1.29085660E-04
   85.9031601         1.26778672E-04
   86.0299530         1.24172308E-04
   86.1567459         1.21248420E-04
   86.2835388         1.17995682E-04
   86.4103317         1.14411931E-04
   86.5371246         1.10505076E-04
   86.6639175         1.06294334E-04
   86.7907104         1.01810750E-04
   86.9175034         9.70972105E-05
   87.0442963         9.22079125E-05
   87.1710892         8.72075107E-05
   87.2978821         8.21695212E-05
   87.4246750         7.71742707E-05
   87.5514679         7.23065386E-05
   87.6782608         6.76528725E-05
   87.8050537         6.32986485E-05
   87.9318466         5.93252553E-05
   88.0586395         5.58071515E-05
   88.1854324         5.28095479E-05
   88.3122177         5.03861156E-05
   88.4390106         4.85773016E-05
   88.5658035         4.74091139E-05
   88.6925964         4.68925573E-05
   88.8193893         4.70233972E-05
   88.9461823         4.77827816E-05
   89.0729752         4.91382671E-05
   89.1997681         5.10453174E-05
   89.3265610         5.34492174E-05
   89.4533539         5.62873902E-05
   89.5801468         5.94918056E-05
   89.7069397         6.29915667E-05
   89.8337326         6.67151035E-05
   89.9605255         7.05926868E-05
   90.0873184         7.45580910E-05
   90.2141113         7.85502198E-05
   90.3409042         8.25142633E-05
   90.4676971         8.64023314E-05
   90.5944901         9.01736712E-05
   90.7212830         9.37946315E-05
   90.8480759         9.72381240E-05
   90.9748688         1.00483150E-04
   91.1016617         1.03513674E-04
   91.2284546         1.06317835E-04
   91.3552475         1.08887063E-04
   91.4820404         1.11214955E-04
   91.6088333         1.13296766E-04
   91.7356262         1.15128991E-04
   91.8624191         1.16708994E-04
   91.9892120         1.18035270E-04
   92.1159973         1.19107892E-04
   92.2427902         1.19929151E-04
   92.3695831         1.20504214E-04
   92.4963760         1.20842175E-04
   92.6231689         1.20956734E-04
   92.7499619         1.20866993E-04
   92.8767548         1.20597761E-04
   93.0035477         1.20179851E-04
   93.1303406         1.19649914E-04
   93.2571335         1.19049801E-04
   93.3839264         1.18425720E-04
   93.5107193         1.17826865E-04
   93.6375122         1.17303636E-04
   93.7643051         1.16905765E-04
   93.8910980         1.16680036E-04
   94.0178909         1.16667892E-04
   94.1446838         1.16903218E-04
   94.2714767         1.17410164E-04
   94.3982697         1.18201147E-04
   94.5250626         1.19275639E-04
   94.6518555         1.20619188E-04
   94.7786484         1.22203186E-04
   94.9054413         1.23985330E-04
   95.0322342         1.25910490E-04
   95.1590271         1.27912572E-04
   95.2858200         1.29916647E-04
   95.4126129         1.31841749E-04
   95.5394058         1.33604044E-04
   95.6661987         1.35120223E-04
   95.7929916         1.36311108E-04
   95.9197769         1.37105235E-04
   96.0465698         1.37442141E-04
   96.1733627         1.37275580E-04
   96.3001556         1.36575720E-04
   96.4269485         1.35331080E-04
   96.5537415         1.33549489E-04
   96.6805344         1.31258392E-04
   96.8073273         1.28504093E-04
   96.9341202         1.25350445E-04
   97.0609131         1.21876685E-04
   97.1877060         1.18174568E-04
   97.3144989         1.14344955E-04
   97.4412918         1.10494213E-04
   97.5680847         1.06729945E-04
   97.6948776         1.03157035E-04
   97.8216705         9.98734322E-05
   97.9484634         9.69665562E-05
   98.0752563         9.45098800E-05