  -4.50000000         0.00000000    
  -4.37320757         0.00000000    
  -4.24641466         0.00000000    
  -4.11962223         0.00000000    
  -3.99282932         0.00000000    
  -3.86603665         0.00000000    
  -3.73924398         0.00000000    
  -3.61245155         0.00000000    
  -3.48565888         0.00000000    
  -3.35886621         0.00000000    
  -3.23207355         0.00000000    
  -3.10528088         0.00000000    
  -2.97848821         0.00000000    
  -2.85169554         0.00000000    
  -2.72490287         0.00000000    
  -2.59811020         0.00000000    
  -2.47131753         0.00000000    
  -2.34452486         0.00000000    
  -2.21773219         0.00000000    
  -2.09093952         0.00000000    
  -1.96414697         0.00000000    
  -1.83735430         0.00000000    
  -1.71056163         0.00000000    
  -1.58376896         0.00000000    
  -1.45697629         0.00000000    
  -1.33018374         0.00000000    
  -1.20339108         0.00000000    
  -1.07659841         0.00000000    
 -0.949805737         0.00000000    
 -0.823013067         0.00000000    
 -0.696220458         0.00000000    
 -0.569427788         0.00000000    
 -0.442635119         0.00000000    
 -0.315842479         0.00000000    
 -0.189049825         0.00000000    
  -6.22571707E-02     0.00000000    
   6.45354837E-02     0.00000000    
  0.191328138         0.00000000    
  0.318120778         0.00000000    
  0.444913447         0.00000000    
  0.571706116         0.00000000    
  0.698498726         0.00000000    
  0.825291395         0.00000000    
  0.952084064         0.00000000    
   1.07887673         0.00000000    
   1.20566940         0.00000000    
   1.33246195         0.00000000    
   1.45925462         0.00000000    
   1.58604729         0.00000000    
   1.71283996         0.00000000    
   1.83963263         0.00000000    
   1.96642530         0.00000000    
   2.09321785         0.00000000    
   2.22001052         0.00000000    
   2.34680319         0.00000000    
   2.47359586         0.00000000    
   2.60038853         0.00000000    
   2.72718120         0.00000000    
   2.85397387         0.00000000    
   2.98076653         0.00000000    
   3.10755920         0.00000000    
   3.23435187         0.00000000    
   3.36114454         0.00000000    
   3.48793697         0.00000000    
   3.61472964         0.00000000    
   3.74152231         0.00000000    
   3.86831498         0.00000000    
   3.99510765         0.00000000    
   4.12190056         0.00000000    
   4.24869299         0.00000000    
   4.37548542         0.00000000    
   4.50227833         0.00000000    
   4.62907076         0.00000000    
   4.75586367         0.00000000    
   4.88265610         0.00000000    
   5.00944901         0.00000000    
   5.13624144         0.00000000    
   5.26303434         0.00000000    
   5.38982677         0.00000000    
   5.51661968         0.00000000    
   5.64341211         0.00000000    
   5.77020502         0.00000000    
   5.89699745         0.00000000    
   6.02379036         0.00000000    
   6.15058279         0.00000000    
   6.27737522         0.00000000    
   6.40416813         0.00000000    
   6.53096056         0.00000000    
   6.65775347         0.00000000    
   6.78454590         0.00000000    
   6.91133881         0.00000000    
   7.03813124         0.00000000    
   7.16492414         0.00000000    
   7.29171658         0.00000000    
   7.41850948         0.00000000    
   7.54530191         0.00000000    
   7.67209482         0.00000000    
   7.79888725         0.00000000    
   7.92567968         0.00000000    
   8.05247211         0.00000000    
   8.17926502         0.00000000    
   8.30605793         0.00000000    
   8.43285084         0.00000000    
   8.55964279         0.00000000    
   8.68643570         0.00000000    
   8.81322861         0.00000000    
   8.94002151         0.00000000    
   9.06681347         0.00000000    
   9.19360638         0.00000000    
   9.32039928         0.00000000    
   9.44719219         0.00000000    
   9.57398415         0.00000000    
   9.70077705         0.00000000    
   9.82756996         0.00000000    
   9.95436192         0.00000000    
   10.0811548         0.00000000    
   10.2079477         0.00000000    
   10.3347406         0.00000000    
   10.4615326         0.00000000    
   10.5883255         0.00000000    
   10.7151184         0.00000000    
   10.8419113         0.00000000    
   10.9687033         0.00000000    
   11.0954962         0.00000000    
   11.2222891         0.00000000    
   11.3490820         0.00000000    
   11.4758739         0.00000000    
   11.6026669         0.00000000    
   11.7294598         0.00000000    
   11.8562517         0.00000000    
   11.9830446         0.00000000    
   12.1098375         0.00000000    
   12.2366304         0.00000000    
   12.3634224         0.00000000    
   12.4902153         0.00000000    
   12.6170082         0.00000000    
   12.7438011         0.00000000    
   12.8705931         0.00000000    
   12.9973860         0.00000000    
   13.1241789         0.00000000    
   13.2509708         0.00000000    
   13.3777637         0.00000000    
   13.5045567         0.00000000    
   13.6313496         0.00000000    
   13.7581415         0.00000000    
   13.8849344         0.00000000    
   14.0117273         0.00000000    
   14.1385202         0.00000000    
   14.2653122         0.00000000    
   14.3921051         0.00000000    
   14.5188980         0.00000000    
   14.6456909         0.00000000    
   14.7724829         0.00000000    
   14.8992758         0.00000000    
   15.0260687         0.00000000    
   15.1528606         0.00000000    
   15.2796535         0.00000000    
   15.4064465         0.00000000    
   15.5332394         0.00000000    
   15.6600313         0.00000000    
   15.7868242         0.00000000    
   15.9136171         0.00000000    
   16.0404091         0.00000000    
   16.1672020         0.00000000    
   16.2939949         0.00000000    
   16.4207878         0.00000000    
   16.5475807         0.00000000    
   16.6743736         0.00000000    
   16.8011646         0.00000000    
   16.9279575         0.00000000    
   17.0547504         0.00000000    
   17.1815434         0.00000000    
   17.3083363         0.00000000    
   17.4351292         0.00000000    
   17.5619221         0.00000000    
   17.6887150         0.00000000    
   17.8155060         0.00000000    
   17.9422989         0.00000000    
   18.0690918         0.00000000    
   18.1958847         0.00000000    
   18.3226776         0.00000000    
   18.4494705         0.00000000    
   18.5762634         0.00000000    
   18.7030544         0.00000000    
   18.8298473         0.00000000    
   18.9566402         0.00000000    
   19.0834332         0.00000000    
   19.2102261         0.00000000    
   19.3370190         0.00000000    
   19.4638119         0.00000000    
   19.5906048         0.00000000    
   19.7173958        -6.21633842E-35
   19.8441887        -4.76719851E-34
   19.9709816        -1.44016746E-33
   20.0977745        -2.87896897E-33
   20.2245674        -3.82686484E-33
   20.3513603        -3.98679489E-33
   20.4781532        -2.91244778E-33
   20.6049442        -2.28905530E-34
   20.7317371         4.13538729E-33
   20.8585300         9.69198839E-33
   20.9853230         1.55532552E-32
   21.1121159         1.75477238E-32
   21.2389088         1.58170141E-32
   21.3657017         1.05425636E-32
   21.4924946         4.84403920E-33
   21.6192856         1.89025608E-33
   21.7460785         4.94585024E-33
   21.8728714         1.31821376E-32
   21.9996643         1.87515755E-32
   22.1264572         2.03132139E-32
   22.2532501         1.01055538E-32
   22.3800430        -1.72629765E-32
   22.5068340         5.59904005E-32
   22.6336269         6.24339562E-31
   22.7604198         1.69751917E-30
   22.8872128         3.57148624E-30
   23.0140057         6.20278878E-30
   23.1407986         9.43332900E-30
   23.2675915         1.28883563E-29
   23.3943844         1.52505259E-29
   23.5211754         1.51166933E-29
   23.6479683         1.29166268E-29
   23.7747612         8.80865814E-30
   23.9015541         3.53298194E-30
   24.0283470        -3.17380202E-30
   24.1551399        -9.83625085E-30
   24.2819328        -2.16356563E-29
   24.4087238        -3.96208206E-29
   24.5355167        -5.71091131E-29
   24.6623096        -7.20863902E-29
   24.7891026        -8.69151781E-29
   24.9158955        -9.63922520E-29
   25.0426884        -1.01549074E-28
   25.1694813        -9.69287379E-29
   25.2962742        -8.31191281E-29
   25.4230652        -6.98973602E-29
   25.5498581        -6.41379329E-29
   25.6766510        -6.76919297E-29
   25.8034439        -8.23422380E-29
   25.9302368        -1.07756021E-28
   26.0570297        -1.44325254E-28
   26.1838226        -1.91542219E-28
   26.3106136        -2.45332395E-28
   26.4374065        -2.98732799E-28
   26.5641994        -3.35053768E-28
   26.6909924        -3.45942398E-28
   26.8177853        -3.19730467E-28
   26.9445782        -2.47514185E-28
   27.0713711        -1.21809243E-28
   27.1981640         6.49275762E-29
   27.3249550         3.20330418E-28
   27.4517479         6.55330212E-28
   27.5785408         1.08052431E-27
   27.7053337         1.60945931E-27
   27.8321266         2.25014080E-27
   27.9589195         3.00698601E-27
   28.0857124         3.86992319E-27
   28.2125034         4.80876935E-27
   28.3392963         5.77097320E-27
   28.4660892         6.66698630E-27
   28.5928822         7.37659827E-27
   28.7196751         7.73909988E-27
   28.8464680         7.56193821E-27
   28.9732609         6.62487237E-27
   29.1000538         4.69333065E-27
   29.2268448         1.53644740E-27
   29.3536377        -3.04866949E-27
   29.4804306        -9.21357105E-27
   29.6072235        -1.70220961E-26
   29.7340164        -2.64161383E-26
   29.8608093        -3.71762997E-26
   29.9876022        -4.88860616E-26
   30.1143932        -6.08970544E-26
   30.2411861        -7.23038290E-26
   30.3679790        -8.19316360E-26
   30.4947720        -8.83429859E-26
   30.6215649        -8.98692222E-26
   30.7483578        -8.46721880E-26
   30.8751507        -7.08397832E-26
   31.0019417        -4.65198456E-26
   31.1287346        -1.00912250E-26
   31.2555275         3.96287511E-26
   31.3823204         1.03145517E-25
   31.5091133         1.80032726E-25
   31.6359062         2.68667042E-25
   31.7626991         3.65982082E-25
   31.8894920         4.67259570E-25
   32.0162849         5.65989408E-25
   32.1430779         6.53825470E-25
   32.2698708         7.20673050E-25
   32.3966637         7.54934414E-25
   32.5234528         7.43941686E-25
   32.6502457         6.74598545E-25
   32.7770386         5.34236721E-25
   32.9038315         3.11686734E-25
   33.0306244        -1.45688608E-27
   33.1574173        -4.09419722E-25
   33.2842102        -9.10739422E-25
   33.4110031        -1.49675461E-24
   33.5377960        -2.15019975E-24
   33.6645889        -2.84403900E-24
   33.7913818        -3.54068463E-24
   33.9181747        -4.19176546E-24
   34.0449677        -4.73860147E-24
   34.1717606        -5.11353759E-24
   34.2985535        -5.24227417E-24
   34.4253426        -5.04728393E-24
   34.5521355        -4.45234475E-24
   34.6789284        -3.38817889E-24
   34.8057213        -1.79907598E-24
   34.9325142         3.49719517E-25
   35.0593071         3.06415131E-24
   35.1861000         6.31346129E-24
   35.3128929         1.00227965E-23
   35.4396858         1.40669203E-23
   35.5664787         1.82657682E-23
   35.6932716         2.23825240E-23
   35.8200645         2.61250474E-23
   35.9468575         2.91512756E-23
   36.0736504         3.10792864E-23
   36.2004433         3.15024345E-23
   36.3272324         3.00097519E-23
   36.4540253         2.62115570E-23
   36.5808182         1.97698987E-23
   36.7076111         1.04328598E-23
   36.8344040        -1.92848861E-24
   36.9611969        -1.72822322E-23
   37.0879898        -3.53991455E-23
   37.2147827        -5.58201889E-23
   37.3415756        -7.78309480E-23
   37.4683685        -1.00446189E-22
   37.5951614        -1.22407925E-22
   37.7219543        -1.42199928E-22
   37.8487473        -1.58081755E-22
   37.9755402        -1.68144112E-22
   38.1023293        -1.70387746E-22
   38.2291222        -1.62825119E-22
   38.3559151        -1.43604340E-22
   38.4827080        -1.11153102E-22
   38.6095009        -6.43371036E-23
   38.7362938        -2.62763651E-24
   38.8630867         7.37302850E-23
   38.9898796         1.63559303E-22
   39.1166725         2.64611716E-22
   39.2434654         3.73465332E-22
   39.3702583         4.85466162E-22
   39.4970512         5.94731703E-22
   39.6238441         6.94226879E-22
   39.7506371         7.75925353E-22
   39.8774300         8.31061960E-22
   40.0042191         8.50483841E-22
   40.1310120         8.25098323E-22
   40.2578049         7.46414231E-22
   40.3845978         6.07161323E-22
   40.5113907         4.01973528E-22
   40.6381836         1.28105192E-22
   40.7649765        -2.13851255E-22
   40.8917694        -6.19287012E-22
   41.0185623        -1.07898582E-21
   41.1453552        -1.57867087E-21
   41.2721481        -2.09874321E-21
   41.3989410        -2.61426798E-21
   41.5257339        -3.09525836E-21
   41.6525269        -3.50730234E-21
   41.7793198        -3.81256713E-21
   41.9061089        -3.97120446E-21
   42.0329018        -3.94315423E-21
   42.1596947        -3.69033867E-21
   42.2864876        -3.17918488E-21
   42.4132805        -2.38342521E-21
   42.5400734        -1.28705820E-21
   42.6668663         1.12649262E-22
   42.7936592         1.80228418E-21
   42.9204521         3.74971635E-21
   43.0472450         5.90202536E-21
   43.1740379         8.18417022E-21
   43.3008308         1.04985771E-20
   43.4276237         1.27258983E-20
   43.5544167         1.47271155E-20
   43.6812096         1.63471003E-20
   43.8079987         1.74198469E-20
   43.9347916         1.77752519E-20
   44.0615845         1.72475252E-20
   44.1883774         1.56850392E-20
   44.3151703         1.29613612E-20
   44.4419632         8.98711379E-21
   44.5687561         3.72217301E-21
   44.6955490        -2.81234421E-21
   44.8223419        -1.05230759E-20
   44.9491348        -1.92350916E-20
   45.0759277        -2.86851632E-20
   45.2027206        -3.85184278E-20
   45.3295135        -4.82893114E-20
   45.4563065        -5.74675782E-20
   45.5830994        -6.54499680E-20
   45.7098885        -7.15780904E-20
   45.8366814        -7.51627163E-20
   45.9634743        -7.55144361E-20
   46.0902672        -7.19801066E-20
   46.2170601        -6.39846434E-20
   46.3438530        -5.10764060E-20
   46.4706459        -3.29748733E-20
   46.5974388        -9.61829218E-21
   46.7242317         1.87912348E-20
   46.8510246         5.17479861E-20
   46.9778175         8.84116036E-20
   47.1046104         1.27587621E-19
   47.2314034         1.67723290E-19
   47.3581963         2.06921246E-19
   47.4849892         2.42974430E-19
   47.6117783         2.73422845E-19
   47.7385712         2.95635359E-19
   47.8653641         3.06914561E-19
   47.9921570         3.04625184E-19
   48.1189499         2.86342735E-19
   48.2457428         2.50018054E-19
   48.3725357         1.94152757E-19
   48.4993286         1.17977876E-19
   48.6261215         2.16264966E-20
   48.7529144        -9.37084999E-20
   48.8797073        -2.25644350E-19
   49.0065002        -3.70515341E-19
   49.1332932        -5.23331169E-19
   49.2600861        -6.77794948E-19
   49.3868790        -8.26392878E-19
   49.5136681        -9.60561935E-19
   49.6404610        -1.07094164E-18
   49.7672539        -1.14771093E-18
   49.8940468        -1.18100857E-18
   50.0208397        -1.16142631E-18
   50.1476326        -1.08056847E-18
   50.2744255        -9.31651663E-19
   50.4012184        -7.10131040E-19
   50.5280113        -4.14314813E-19
   50.6548042        -4.59414367E-20
   50.7815971         3.89320336E-19
   50.9083900         8.81485744E-19
   51.0351830         1.41602247E-18
   51.1619759         1.97380907E-18
   51.2887688         2.53132033E-18
   51.4155579         3.06106292E-18
   51.5423508         3.53228455E-18
   51.6691437         3.91196542E-18
   51.7959366         4.16608109E-18
   51.9227295         4.26113490E-18
   52.0495224         4.16589539E-18
   52.1763153         3.85332038E-18
   52.3031082         3.30257464E-18
   52.4299011         2.50106185E-18
   52.5566940         1.44638269E-18
   52.6834869         1.48087935E-19
   52.8102798        -1.37087557E-18
   52.9370728        -3.07314762E-18
   53.0638657        -4.90650494E-18
   53.1906586        -6.80404485E-18
   53.3174477        -8.68515324E-18
   53.4442406        -1.04572678E-17
   53.5710335        -1.20185149E-17
   53.6978264        -1.32611999E-17
   53.8246193        -1.40761226E-17
   53.9514122        -1.43576138E-17
   54.0782051        -1.40091706E-17
   54.2049980        -1.29495084E-17
   54.3317909        -1.11187591E-17
   54.4585838        -8.48458097E-18
   54.5853767        -5.04782998E-18
   54.7121696        -8.47498960E-19
   54.8389626         4.03548458E-18
   54.9657555         9.47590316E-18
   55.0925484         1.53036619E-17
   55.2193375         2.13053072E-17
   55.3461304         2.72277715E-17
   55.4729233         3.27846286E-17
   55.5997162         3.76647494E-17
   55.7265091         4.15434522E-17
   55.8533020         4.40958040E-17
   55.9800949         4.50118106E-17
   56.1068878         4.40131025E-17
   56.2336807         4.08704150E-17
   56.3604736         3.54211146E-17
   56.4872665         2.75861227E-17
   56.6140594         1.73851544E-17
   56.7408524         4.94946621E-18
   56.8676453        -9.46895816E-18
   56.9944382        -2.54925335E-17
   57.1212273        -4.26185157E-17
   57.2480202        -6.02251808E-17
   57.3748131        -7.75845718E-17
   57.5016060        -9.38817239E-17
   57.6283989        -1.08240355E-16
   57.7551918        -1.19755146E-16
   57.8819847        -1.27529069E-16
   58.0087776        -1.30715633E-16
   58.1355705        -1.28563878E-16
   58.2623634        -1.20465039E-16
   58.3891563        -1.05998451E-16
   58.5159492        -8.49746695E-17
   58.6427422        -5.74735082E-17
   58.7695351        -2.38745534E-17
   58.8963280         1.51223158E-17
   59.0231171         5.84883728E-17
   59.1499100         1.04871387E-16
   59.2767029         1.52616398E-16
   59.4034958         1.99802552E-16
   59.5302887         2.44296796E-16
   59.6570816         2.83823482E-16
   59.7838745         3.16048507E-16
   59.9106674         3.38676436E-16
   60.0374603         3.49557527E-16
   60.1642532         3.46800276E-16
   60.2910461         3.28885873E-16
   60.4178391         2.94779642E-16
   60.5446320         2.44032654E-16
   60.6714249         1.76869929E-16
   60.7982178         9.42580381E-17
   60.9250069        -2.05283543E-18
   61.0517998        -1.09516483E-16
   61.1785927        -2.24812814E-16
   61.3053856        -3.43906891E-16
   61.4321785        -4.62145623E-16
   61.5589714        -5.74393264E-16
   61.6857643        -6.75202785E-16
   61.8125572        -7.59020083E-16
   61.9393501        -8.20413984E-16
   62.0661430        -8.54327013E-16
   62.1929359        -8.56335328E-16
   62.3197289        -8.22908867E-16
   62.4465218        -7.51659155E-16
   62.5733147        -6.41564301E-16
   62.7001076        -4.93154652E-16
   62.8268967        -3.08652241E-16
   62.9536896        -9.20487115E-17
   63.0804825         1.50885367E-16
   63.2072754         4.12669131E-16
   63.3340683         6.84260849E-16
   63.4608612         9.55291699E-16
   63.5876541         1.21438002E-15
   63.7144470         1.44952049E-15
   63.8412399         1.64854105E-15
   63.9680328         1.79960768E-15
   64.0948257         1.89176868E-15
   64.2216187         1.91550889E-15
   64.3484116         1.86329609E-15
   64.4752045         1.73009222E-15
   64.6019974         1.51380670E-15
   64.7287903         1.21566232E-15
   64.8555832         8.40449119E-16
   64.9823761         3.96652083E-16
   65.1091690        -1.03573680E-16
   65.2359619        -6.44590379E-16
   65.3627548        -1.20762991E-15
   65.4895477        -1.77131689E-15
   65.6163330        -2.31235251E-15
   65.7431259        -2.80633853E-15
   65.8699188        -3.22873078E-15
   65.9967117        -3.55587354E-15
   66.1235046        -3.76609356E-15
   66.2502975        -3.84080398E-15
   66.3770905        -3.76556120E-15
   66.5038834        -3.53104531E-15
   66.6306763        -3.13389167E-15
   66.7574692        -2.57734190E-15
   66.8842621        -1.87165821E-15
   67.0110550        -1.03427043E-15
   67.1378479        -8.96183887E-17
   67.2646408         9.31319184E-16
   67.3914337         1.99182148E-15
   67.5182266         3.05054511E-15
   67.6450195         4.06292906E-15
   67.7718124         4.98286232E-15
   67.8986053         5.76455599E-15
   68.0253983         6.36455517E-15
   68.1521912         6.74380570E-15
   68.2789841         6.86971249E-15
   68.4057770         6.71806310E-15
   68.5325699         6.27475866E-15
   68.6593628         5.53722251E-15
   68.7861557         4.51542549E-15
   68.9129486         3.23244883E-15
   69.0397415         1.72449862E-15
   69.1665344         4.03597865E-17
   69.2933273        -1.75975828E-15
   69.4201126        -3.60597088E-15
   69.5469055        -5.42102823E-15
   69.6736984        -7.12314813E-15
   69.8004913        -8.62925826E-15
   69.9272842        -9.85858174E-15
   70.0540771        -1.07363772E-14
   70.1808701        -1.11977417E-14
   70.3076630        -1.11912754E-14
   70.4344559        -1.06824263E-14
   70.5612488        -9.65638651E-15
   70.6880417        -8.12032953E-15
   70.8148346        -6.10486461E-15
   70.9416275        -3.66456480E-15
   71.0684204        -8.77491299E-16
   71.1952133         2.15637796E-15
   71.3220062         5.31780540E-15
   71.4487991         8.47202693E-15
   71.5755920         1.14734662E-14
   71.7023849         1.41713288E-14
   71.8291779         1.64158814E-14
   71.9559708         1.80651901E-14
   72.0827637         1.89921219E-14
   72.2095566         1.90912061E-14
   72.3363495         1.82852052E-14
   72.4631424         1.65309068E-14
   72.5899353         1.38240080E-14
   72.7167282         1.02026465E-14
   72.8435211         5.74942163E-15
   72.9703140         5.91621015E-16
   73.0971069        -5.10041482E-15
   73.2238922        -1.11169839E-14
   73.3506851        -1.72146758E-14
   73.4774780        -2.31239910E-14
   73.6042709        -2.85586814E-14
   73.7310638        -3.32266393E-14
   73.8578568        -3.68419589E-14
   73.9846497        -3.91377265E-14
   74.1114426        -3.98791514E-14
   74.2382355        -3.88764203E-14
   74.3650284        -3.59968030E-14
   74.4918213        -3.11753593E-14
   74.6186142        -2.44237834E-14
   74.7454071        -1.58368158E-14
   74.8722000        -5.59573385E-15
   74.9989929         6.03137815E-15
   75.1257858         1.86928787E-14
   75.2525787         3.19605081E-14
   75.3793716         4.53400846E-14
   75.5061646         5.82856110E-14
   75.6329575         7.02168155E-14
   75.7597504         8.05394366E-14
   75.8865433         8.86677545E-14
   76.0133362         9.40487177E-14
   76.1401291         9.61867101E-14
   76.2669220         9.46682308E-14
   76.3937149         8.91851426E-14
   76.5205078         7.95560720E-14
   76.6473007         6.57444273E-14
   76.7740936         4.78723506E-14
   76.9008865         2.62296915E-14
   77.0276718         1.27739938E-15
   77.1544647        -2.63553573E-14
   77.2812576        -5.58806744E-14
   77.4080505        -8.63680262E-14
   77.5348434        -1.16767137E-13
   77.6616364        -1.45936879E-13
   77.7884293        -1.72680026E-13
   77.9152222        -1.95782558E-13
   78.0420151        -2.14056678E-13
   78.1688080        -2.26386401E-13
   78.2956009        -2.31773720E-13
   78.4223938        -2.29383922E-13
   78.5491867        -2.18589063E-13
   78.6759796        -1.99006542E-13
   78.8027725        -1.70532466E-13
   78.9295654        -1.33367005E-13
   79.0563583        -8.80317344E-14
   79.1831512        -3.53760905E-14
   79.3099442         2.34265495E-14
   79.4367371         8.68944673E-14
   79.5635300         1.53265055E-13
   79.6903229         2.20533837E-13
   79.8171158         2.86504246E-13
   79.9439087         3.48847931E-13
   80.0707016         4.05173562E-13
   80.1974945         4.53102183E-13
   80.3242874         4.90347888E-13
   80.4510803         5.14800496E-13
   80.5778732         5.24608243E-13
   80.7046585         5.18257475E-13
   80.8314514         4.94646750E-13
   80.9582443         4.53151703E-13
   81.0850372         3.93679555E-13
   81.2118301         3.16709143E-13
   81.3386230         2.23315683E-13
   81.4654160         1.15177548E-13
   81.5922089        -5.43580175E-15
   81.7190018        -1.35695410E-13
   81.8457947        -2.72264362E-13
   81.9725876        -4.11368585E-13
   82.0993805        -5.48886132E-13
   82.2261734        -6.80452656E-13
   82.3529663        -8.01581457E-13
   82.4797592        -9.07794022E-13
   82.6065521        -9.94759396E-13
   82.7333450        -1.05843687E-12
   82.8601379        -1.09521864E-12
   82.9869308        -1.10206657E-12
   83.1137238        -1.07664301E-12
   83.2405167        -1.01742291E-12
   83.3673096        -9.23794244E-13
   83.4941025        -7.96130089E-13
   83.6208954        -6.35840935E-13
   83.7476883        -4.45395186E-13
   83.8744812        -2.28310670E-13
   84.0012741         1.08860268E-14
   84.1280670         2.66732735E-13
   84.2548599         5.32935837E-13
   84.3816528         8.02506553E-13
   84.5084381         1.06792407E-12
   84.6352310         1.32132228E-12
   84.7620239         1.55470092E-12
   84.8888168         1.76014628E-12
   85.0156097         1.93006722E-12
   85.1424026         2.05742975E-12
   85.2691956         2.13599169E-12
   85.3959885         2.16052263E-12
   85.5227814         2.12701124E-12
   85.6495743         2.03284286E-12
   85.7763672         1.87695129E-12
   85.9031601         1.65993001E-12
   86.0299530         1.38410453E-12
   86.1567459         1.05355568E-12
   86.2835388         6.74098093E-13
   86.4103317         2.53205958E-13
   86.5371246        -2.00110965E-13
   86.6639175        -6.75480342E-13
   86.7907104        -1.16138587E-12
   86.9175034        -1.64542967E-12
   87.0442963        -2.11462987E-12
   87.1710892        -2.55574576E-12
   87.2978821        -2.95563097E-12
   87.4246750        -3.30158969E-12
   87.5514679        -3.58174232E-12
   87.6782608        -3.78538433E-12
   87.8050537        -3.90331734E-12
   87.9318466        -3.92816552E-12
   88.0586395        -3.85464620E-12
   88.1854324        -3.67979475E-12
   88.3122177        -3.40313324E-12
   88.4390106        -3.02678282E-12
   88.5658035        -2.55550724E-12
   88.6925964        -1.99668190E-12
   88.8193893        -1.36020156E-12
   88.9461823        -6.58310429E-13
   89.0729752         9.46310833E-14
   89.1997681         8.82444617E-13
   89.3265610         1.68748446E-12
   89.4533539         2.49103949E-12
   89.5801468         3.27376776E-12
   89.7069397         4.01616284E-12
   89.8337326         4.69902806E-12
   89.9605255         5.30395519E-12
   90.0873184         5.81378999E-12
   90.2141113         6.21307866E-12
   90.3409042         6.48846515E-12
   90.4676971         6.62905668E-12
   90.5944901         6.62672001E-12
   90.7212830         6.47632512E-12
   90.8480759         6.17589877E-12
   90.9748688         5.72672769E-12
   91.1016617         5.13336769E-12
   91.2284546         4.40358253E-12
   91.3552475         3.54821229E-12
   91.4820404         2.58096908E-12
   91.6088333         1.51817643E-12
   91.7356262         3.78452396E-13
   91.8624191        -8.17652424E-13
   91.9892120        -2.04804706E-12
   92.1159973        -3.28951645E-12
   92.2427902        -4.51814974E-12
   92.3695831        -5.70977293E-12
   92.4963760        -6.84037202E-12
   92.6231689        -7.88649701E-12
   92.7499619        -8.82564681E-12
   92.8767548        -9.63663524E-12
   93.0035477        -1.02999050E-11
   93.1303406        -1.07978244E-11
   93.2571335        -1.11149536E-11
   93.3839264        -1.12382603E-11
   93.5107193        -1.11573242E-11
   93.6375122        -1.08645176E-11
   93.7643051        -1.03551412E-11
   93.8910980        -9.62756784E-12
   94.0178909        -8.68336045E-12
   94.1446838        -7.52737976E-12
   94.2714767        -6.16788001E-12
   94.3982697        -4.61659617E-12
   94.5250626        -2.88882243E-12
   94.6518555        -1.00346305E-12
   94.7786484         1.01692678E-12
   94.9054413         3.14615131E-12
   95.0322342         5.35440225E-12
   95.1590271         7.60836706E-12
   95.2858200         9.87139190E-12
   95.4126129         1.21037182E-11
   95.5394058         1.42628210E-11
   95.6661987         1.63038662E-11
   95.7929916         1.81802507E-11
   95.9197769         1.98442773E-11
   96.0465698         2.12479687E-11
   96.1733627         2.23439565E-11
   96.3001556         2.30865535E-11
   96.4269485         2.34328511E-11
   96.5537415         2.33439223E-11
   96.6805344         2.27861237E-11
   96.8073273         2.17323746E-11
   96.9341202         2.01634386E-11
   97.0609131         1.80691503E-11
   97.1877060         1.54495913E-11
   97.3144989         1.23160857E-11
   97.4412918         8.69203667E-12
   97.5680847         4.61353481E-12
   97.6948776         1.29701073E-13
   97.8216705        -4.69725604E-12
   97.9484634        -9.79234749E-12
   98.0752563        -1.50684448E-11