  -4.50000000         0.00000000    
  -4.37320757         0.00000000    
  -4.24641466         0.00000000    
  -4.11962223         0.00000000    
  -3.99282932         0.00000000    
  -3.86603665         0.00000000    
  -3.73924398         0.00000000    
  -3.61245155         0.00000000    
  -3.48565888         0.00000000    
  -3.35886621         0.00000000    
  -3.23207355         0.00000000    
  -3.10528088         0.00000000    
  -2.97848821         0.00000000    
  -2.85169554         0.00000000    
  -2.72490287         0.00000000    
  -2.59811020         0.00000000    
  -2.47131753         0.00000000    
  -2.34452486         0.00000000    
  -2.21773219         0.00000000    
  -2.09093952         0.00000000    
  -1.96414697         0.00000000    
  -1.83735430         0.00000000    
  -1.71056163         0.00000000    
  -1.58376896         0.00000000    
  -1.45697629         0.00000000    
  -1.33018374         0.00000000    
  -1.20339108         0.00000000    
  -1.07659841         0.00000000    
 -0.949805737         0.00000000    
 -0.823013067         0.00000000    
 -0.696220458         0.00000000    
 -0.569427788         0.00000000    
 -0.442635119         0.00000000    
 -0.315842479         0.00000000    
 -0.189049825         0.00000000    
  -6.22571707E-02     0.00000000    
   6.45354837E-02     0.00000000    
  0.191328138         0.00000000    
  0.318120778         0.00000000    
  0.444913447         0.00000000    
  0.571706116         0.00000000    
  0.698498726         0.00000000    
  0.825291395         0.00000000    
  0.952084064         0.00000000    
   1.07887673         0.00000000    
   1.20566940         0.00000000    
   1.33246195         0.00000000    
   1.45925462         0.00000000    
   1.58604729         0.00000000    
   1.71283996         0.00000000    
   1.83963263         0.00000000    
   1.96642530         0.00000000    
   2.09321785         0.00000000    
   2.22001052         0.00000000    
   2.34680319         0.00000000    
   2.47359586         0.00000000    
   2.60038853         0.00000000    
   2.72718120         0.00000000    
   2.85397387         0.00000000    
   2.98076653         0.00000000    
   3.10755920         0.00000000    
   3.23435187         0.00000000    
   3.36114454         0.00000000    
   3.48793697         0.00000000    
   3.61472964         0.00000000    
   3.74152231         0.00000000    
   3.86831498         0.00000000    
   3.99510765         0.00000000    
   4.12190056         0.00000000    
   4.24869299         0.00000000    
   4.37548542         0.00000000    
   4.50227833         0.00000000    
   4.62907076         0.00000000    
   4.75586367         0.00000000    
   4.88265610         0.00000000    
   5.00944901         0.00000000    
   5.13624144         0.00000000    
   5.26303434         0.00000000    
   5.38982677         0.00000000    
   5.51661968         0.00000000    
   5.64341211         0.00000000    
   5.77020502         0.00000000    
   5.89699745         0.00000000    
   6.02379036         0.00000000    
   6.15058279         0.00000000    
   6.27737522         0.00000000    
   6.40416813         0.00000000    
   6.53096056         0.00000000    
   6.65775347         0.00000000    
   6.78454590         0.00000000    
   6.91133881         0.00000000    
   7.03813124         0.00000000    
   7.16492414         0.00000000    
   7.29171658         0.00000000    
   7.41850948         0.00000000    
   7.54530191         0.00000000    
   7.67209482         0.00000000    
   7.79888725         0.00000000    
   7.92567968         0.00000000    
   8.05247211         0.00000000    
   8.17926502         0.00000000    
   8.30605793         0.00000000    
   8.43285084         0.00000000    
   8.55964279         0.00000000    
   8.68643570         0.00000000    
   8.81322861         0.00000000    
   8.94002151         0.00000000    
   9.06681347         0.00000000    
   9.19360638         0.00000000    
   9.32039928         0.00000000    
   9.44719219         0.00000000    
   9.57398415         0.00000000    
   9.70077705         0.00000000    
   9.82756996         0.00000000    
   9.95436192         0.00000000    
   10.0811548         0.00000000    
   10.2079477         0.00000000    
   10.3347406         0.00000000    
   10.4615326         0.00000000    
   10.5883255         0.00000000    
   10.7151184         0.00000000    
   10.8419113         0.00000000    
   10.9687033         0.00000000    
   11.0954962         0.00000000    
   11.2222891         0.00000000    
   11.3490820         0.00000000    
   11.4758739         0.00000000    
   11.6026669         0.00000000    
   11.7294598         0.00000000    
   11.8562517         0.00000000    
   11.9830446         0.00000000    
   12.1098375         0.00000000    
   12.2366304         0.00000000    
   12.3634224         0.00000000    
   12.4902153         0.00000000    
   12.6170082         0.00000000    
   12.7438011         0.00000000    
   12.8705931         0.00000000    
   12.9973860         0.00000000    
   13.1241789         0.00000000    
   13.2509708         0.00000000    
   13.3777637         0.00000000    
   13.5045567         0.00000000    
   13.6313496         0.00000000    
   13.7581415         0.00000000    
   13.8849344         0.00000000    
   14.0117273         0.00000000    
   14.1385202         0.00000000    
   14.2653122         0.00000000    
   14.3921051         0.00000000    
   14.5188980         0.00000000    
   14.6456909         0.00000000    
   14.7724829         0.00000000    
   14.8992758         0.00000000    
   15.0260687         0.00000000    
   15.1528606         0.00000000    
   15.2796535         0.00000000    
   15.4064465         0.00000000    
   15.5332394         0.00000000    
   15.6600313         0.00000000    
   15.7868242         0.00000000    
   15.9136171         0.00000000    
   16.0404091         0.00000000    
   16.1672020         0.00000000    
   16.2939949         0.00000000    
   16.4207878         0.00000000    
   16.5475807         0.00000000    
   16.6743736         0.00000000    
   16.8011646         0.00000000    
   16.9279575         0.00000000    
   17.0547504         0.00000000    
   17.1815434         0.00000000    
   17.3083363         0.00000000    
   17.4351292         0.00000000    
   17.5619221         0.00000000    
   17.6887150         0.00000000    
   17.8155060         0.00000000    
   17.9422989         0.00000000    
   18.0690918         0.00000000    
   18.1958847         0.00000000    
   18.3226776         0.00000000    
   18.4494705         0.00000000    
   18.5762634         0.00000000    
   18.7030544         0.00000000    
   18.8298473         0.00000000    
   18.9566402         0.00000000    
   19.0834332         0.00000000    
   19.2102261         0.00000000    
   19.3370190         0.00000000    
   19.4638119         0.00000000    
   19.5906048         0.00000000    
   19.7173958         1.33183016E-34
   19.8441887         4.63899708E-34
   19.9709816         9.87239849E-34
   20.0977745         1.23313481E-33
   20.2245674         6.09090479E-34
   20.3513603        -8.53530122E-34
   20.4781532        -1.80642533E-33
   20.6049442        -1.96883751E-33
   20.7317371        -1.65248535E-33
   20.8585300        -1.15173228E-33
   20.9853230        -7.49986977E-34
   21.1121159        -1.37132620E-33
   21.2389088        -7.75055864E-34
   21.3657017         2.32435531E-33
   21.4924946         9.39902655E-33
   21.6192856         1.90947831E-32
   21.7460785         2.53654372E-32
   21.8728714         2.76146927E-32
   21.9996643         2.88370335E-32
   22.1264572         2.67125684E-32
   22.2532501         3.68343447E-32
   22.3800430         5.93405711E-32
   22.5068340        -2.08141822E-31
   22.6336269        -6.28583191E-31
   22.7604198        -9.73004916E-31
   22.8872128        -5.03785328E-31
   23.0140057         6.32548509E-31
   23.1407986         2.03756373E-30
   23.2675915         3.46295106E-30
   23.3943844         5.43673999E-30
   23.5211754         7.69517045E-30
   23.6479683         9.01096278E-30
   23.7747612         9.78482927E-30
   23.9015541         1.06869883E-29
   24.0283470         1.19050562E-29
   24.1551399         1.38874415E-29
   24.2819328         2.20130001E-29
   24.4087238         3.89481746E-29
   24.5355167         6.91151257E-29
   24.6623096         1.09315735E-28
   24.7891026         1.48884965E-28
   24.9158955         1.78733377E-28
   25.0426884         1.95951852E-28
   25.1694813         2.06041522E-28
   25.2962742         2.06943724E-28
   25.4230652         1.94642364E-28
   25.5498581         1.65743882E-28
   25.6766510         1.15000407E-28
   25.8034439         2.59099298E-29
   25.9302368        -1.15182648E-28
   26.0570297        -3.22988250E-28
   26.1838226        -6.07662483E-28
   26.3106136        -9.60258655E-28
   26.4374065        -1.36451347E-27
   26.5641994        -1.79577213E-27
   26.6909924        -2.23692699E-27
   26.8177853        -2.66420091E-27
   26.9445782        -3.05836828E-27
   27.0713711        -3.37263151E-27
   27.1981640        -3.55519734E-27
   27.3249550        -3.53714291E-27
   27.4517479        -3.24007861E-27
   27.5785408        -2.57531115E-27
   27.7053337        -1.46344396E-27
   27.8321266         1.51355657E-28
   27.9589195         2.30930903E-27
   28.0857124         5.01853817E-27
   28.2125034         8.25110219E-27
   28.3392963         1.19288434E-26
   28.4660892         1.59191576E-26
   28.5928822         2.00241540E-26
   28.7196751         2.39693753E-26
   28.8464680         2.73978079E-26
   28.9732609         2.98686189E-26
   29.1000538         3.08670549E-26
   29.2268448         2.98239096E-26
   29.3536377         2.61447024E-26
   29.4804306         1.92516481E-26
   29.6072235         8.63262198E-27
   29.7340164        -6.09607749E-27
   29.8608093        -2.51226083E-26
   29.9876022        -4.83667138E-26
   30.1143932        -7.54034237E-26
   30.2411861        -1.05388994E-25
   30.3679790        -1.36994546E-25
   30.4947720        -1.68355477E-25
   30.6215649        -1.97046336E-25
   30.7483578        -2.20094756E-25
   30.8751507        -2.34039500E-25
   31.0019417        -2.35046505E-25
   31.1287346        -2.19089945E-25
   31.2555275        -1.82201527E-25
   31.3823204        -1.20787756E-25
   31.5091133        -3.20091529E-26
   31.6359062         8.57838410E-26
   31.7626991         2.32579023E-25
   31.8894920         4.06219831E-25
   32.0162849         6.01942286E-25
   32.1430779         8.11973790E-25
   32.2698708         1.02524268E-24
   32.3966637         1.22724866E-24
   32.5234528         1.40015405E-24
   32.6502457         1.52314891E-24
   32.7770386         1.57313833E-24
   32.9038315         1.52579622E-24
   33.0306244         1.35699528E-24
   33.1574173         1.04462430E-24
   33.2842102         5.70749394E-25
   33.4110031        -7.59353563E-26
   33.5377960        -8.97476106E-25
   33.6645889        -1.88398818E-24
   33.7913818        -3.01113039E-24
   33.9181747        -4.23794932E-24
   34.0449677        -5.50534824E-24
   34.1717606        -6.73546244E-24
   34.2985535        -7.83219682E-24
   34.4253426        -8.68325389E-24
   34.5521355        -9.16381375E-24
   34.6789284        -9.14209562E-24
   34.8057213        -8.48684172E-24
   34.9325142        -7.07672209E-24
   35.0593071        -4.81142043E-24
   35.1861000        -1.62411137E-24
   35.3128929         2.50528635E-24
   35.4396858         7.53675263E-24
   35.5664787         1.33576902E-23
   35.6932716         1.97723710E-23
   35.8200645         2.64945814E-23
   35.9468575         3.31447419E-23
   36.0736504         3.92528257E-23
   36.2004433         4.42682329E-23
   36.3272324         4.75777821E-23
   36.4540253         4.85323195E-23
   36.5808182         4.64823888E-23
   36.7076111         4.08225453E-23
   36.8344040         3.10433269E-23
   36.9611969         1.67892115E-23
   37.0879898        -2.08009466E-24
   37.2147827        -2.54284154E-23
   37.3415756        -5.27861352E-23
   37.4683685        -8.33024052E-23
   37.5951614        -1.15711973E-22
   37.7219543        -1.48322082E-22
   37.8487473        -1.79025583E-22
   37.9755402        -2.05344394E-22
   38.1023293        -2.24508324E-22
   38.2291222        -2.33571844E-22
   38.3559151        -2.29568747E-22
   38.4827080        -2.09704359E-22
   38.6095009        -1.71579443E-22
   38.7362938        -1.13439208E-22
   38.8630867        -3.44357822E-23
   38.9898796         6.51102441E-23
   39.1166725         1.83466428E-22
   39.2434654         3.17283845E-22
   39.3702583         4.61452580E-22
   39.4970512         6.09041412E-22
   39.6238441         7.51341923E-22
   39.7506371         8.78039699E-22
   39.8774300         9.77525839E-22
   40.0042191         1.03736113E-21
   40.1310120         1.04489451E-21
   40.2578049         9.88029881E-22
   40.3845978         8.56119514E-22
   40.5113907         6.40959709E-22
   40.6381836         3.37841585E-22
   40.7649765        -5.33990549E-23
   40.8917694        -5.27396051E-22
   41.0185623        -1.07241351E-21
   41.1453552        -1.66973253E-21
   41.2721481        -2.29335057E-21
   41.3989410        -2.91007875E-21
   41.5257339        -3.48011524E-21
   41.6525269        -3.95814445E-21
   41.7793198        -4.29501860E-21
   41.9061089        -4.44001391E-21
   42.0329018        -4.34365424E-21
   42.1596947        -3.96102949E-21
   42.2864876        -3.25550521E-21
   42.4132805        -2.20267110E-21
   42.5400734        -7.94327446E-22
   42.6668663         9.57714600E-22
   42.7936592         3.01831905E-21
   42.9204521         5.32646315E-21
   43.0472450         7.79374743E-21
   43.1740379         1.03042899E-20
   43.3008308         1.27162605E-20
   43.4276237         1.48652709E-20
   43.5544167         1.65698316E-20
   43.6812096         1.76388382E-20
   43.8079987         1.78811391E-20
   43.9347916         1.71169098E-20
   44.0615845         1.51905435E-20
   44.1883774         1.19845869E-20
   44.3151703         7.43401030E-21
   44.4419632         1.54013245E-21
   44.5687561        -5.61678295E-21
   44.6955490        -1.38671789E-20
   44.8223419        -2.29452018E-20
   44.9491348        -3.24859870E-20
   45.0759277        -4.20282424E-20
   45.2027206        -5.10229236E-20
   45.3295135        -5.88485950E-20
   45.4563065        -6.48337896E-20
   45.5830994        -6.82863510E-20
   45.7098885        -6.85293094E-20
   45.8366814        -6.49423182E-20
   45.9634743        -5.70073750E-20
   46.0902672        -4.43568624E-20
   46.2170601        -2.68216302E-20
   46.3438530        -4.47635736E-21
   46.4706459         2.23207935E-20
   46.5974388         5.28975862E-20
   46.7242317         8.62493987E-20
   46.8510246         1.21036221E-19
   46.9778175         1.55598076E-19
   47.1046104         1.87990869E-19
   47.2314034         2.16043950E-19
   47.3581963         2.37440644E-19
   47.4849892         2.49820281E-19
   47.6117783         2.50899700E-19
   47.7385712         2.38611957E-19
   47.8653641         2.11255544E-19
   47.9921570         1.67649632E-19
   48.1189499         1.07286314E-19
   48.2457428         3.04719799E-20
   48.3725357        -6.15521637E-20
   48.4993286        -1.66519923E-19
   48.6261215        -2.81090319E-19
   48.7529144        -4.00847511E-19
   48.8797073        -5.20357765E-19
   49.0065002        -6.33290459E-19
   49.1332932        -7.32605899E-19
   49.2600861        -8.10810863E-19
   49.3868790        -8.60279262E-19
   49.5136681        -8.73630216E-19
   49.6404610        -8.44154359E-19
   49.7672539        -7.66269669E-19
   49.8940468        -6.35993530E-19
   50.0208397        -4.51401456E-19
   50.1476326        -2.13053266E-19
   50.2744255         7.56459126E-20
   50.4012184         4.08173100E-19
   50.5280113         7.74736069E-19
   50.6548042         1.16226496E-18
   50.7815971         1.55457129E-18
   50.9083900         1.93268848E-18
   51.0351830         2.27540905E-18
   51.1619759         2.56000819E-18
   51.2887688         2.76316106E-18
   51.4155579         2.86202217E-18
   51.5423508         2.83543659E-18
   51.6691437         2.66525183E-18
   51.7959366         2.33766618E-18
   51.9227295         1.84455941E-18
   52.0495224         1.18473088E-18
   52.1763153         3.64979797E-19
   52.3031082        -5.99060226E-19
   52.4299011        -1.68239882E-18
   52.5566940        -2.85055373E-18
   52.6834869        -4.05985994E-18
   52.8102798        -5.25827176E-18
   52.9370728        -6.38668591E-18
   53.0638657        -7.38079116E-18
   53.1906586        -8.17342375E-18
   53.3174477        -8.69740048E-18
   53.4442406        -8.88872074E-18
   53.5710335        -8.69007662E-18
   53.6978264        -8.05451157E-18
   53.8246193        -6.94908311E-18
   53.9514122        -5.35835648E-18
   54.0782051        -3.28753381E-18
   54.2049980        -7.65043477E-19
   54.3317909         2.15564632E-18
   54.4585838         5.39512673E-18
   54.5853767         8.84826168E-18
   54.7121696         1.23856309E-17
   54.8389626         1.58562764E-17
   54.9657555         1.90918430E-17
   55.0925484         2.19120310E-17
   55.2193375         2.41313284E-17
   55.3461304         2.55668359E-17
   55.4729233         2.60469944E-17
   55.5997162         2.54208881E-17
   55.7265091         2.35678083E-17
   55.8533020         2.04066218E-17
   55.9800949         1.59045309E-17
   56.1068878         1.00847768E-17
   56.2336807         3.03272227E-18
   56.3604736        -5.10009829E-18
   56.4872665        -1.40943900E-17
   56.6140594        -2.36643618E-17
   56.7408524        -3.34621392E-17
   56.8676453        -4.30854658E-17
   56.9944382        -5.20887775E-17
   57.1212273        -5.99975539E-17
   57.2480202        -6.63256775E-17
   57.3748131        -7.05953853E-17
   57.5016060        -7.23593512E-17
   57.6283989        -7.12238308E-17
   57.7551918        -6.68725630E-17
   57.8819847        -5.90897662E-17
   58.0087776        -4.77817440E-17
   58.1355705        -3.29956126E-17
   58.2623634        -1.49340743E-17
   58.3891563         6.03471394E-18
   58.5159492         2.93733556E-17
   58.6427422         5.43781950E-17
   58.7695351         8.01898995E-17
   58.8963280         1.05811865E-16
   59.0231171         1.30136620E-16
   59.1499100         1.51980025E-16
   59.2767029         1.70122676E-16
   59.4034958         1.83357381E-16
   59.5302887         1.90541663E-16
   59.6570816         1.90653617E-16
   59.7838745         1.82848446E-16
   59.9106674         1.66514501E-16
   60.0374603         1.41325661E-16
   60.1642532         1.07287185E-16
   60.2910461         6.47733771E-17
   60.4178391         1.45537863E-17
   60.5446320        -4.21943805E-17
   60.6714249        -1.03889041E-16
   60.7982178        -1.68563434E-16
   60.9250069        -2.33904522E-16
   61.0517998        -2.97309676E-16
   61.1785927        -3.55961917E-16
   61.3053856        -4.06922013E-16
   61.4321785        -4.47235831E-16
   61.5589714        -4.74053530E-16
   61.6857643        -4.84758279E-16
   61.8125572        -4.77098507E-16
   61.9393501        -4.49320221E-16
   62.0661430        -4.00292842E-16
   62.1929359        -3.29623136E-16
   62.3197289        -2.37751931E-16
   62.4465218        -1.26026287E-16
   62.5733147         3.25634020E-18
   62.7001076         1.46838839E-16
   62.8268967         3.00532742E-16
   62.9536896         4.59286887E-16
   63.0804825         6.17299030E-16
   63.2072754         7.68169204E-16
   63.3340683         9.05093668E-16
   63.4608612         1.02109557E-15
   63.5876541         1.10928748E-15
   63.7144470         1.16315665E-15
   63.8412399         1.17686705E-15
   63.9680328         1.14556389E-15
   64.0948257         1.06567312E-15
   64.2216187         9.35177843E-16
   64.3484116         7.53863929E-16
   64.4752045         5.23516019E-16
   64.6019974         2.48057463E-16
   64.7287903        -6.63849632E-17
   64.8555832        -4.11495806E-16
   64.9823761        -7.76874849E-16
   65.1091690        -1.15023527E-15
   65.2359619        -1.51769871E-15
   65.3627548        -1.86418378E-15
   65.4895477        -2.17388211E-15
   65.6163330        -2.43081282E-15
   65.7431259        -2.61944071E-15
   65.8699188        -2.72534079E-15
   65.9967117        -2.73588190E-15
   66.1235046        -2.64091257E-15
   66.2502975        -2.43341851E-15
   66.3770905        -2.11011344E-15
   66.5038834        -1.67195029E-15
   66.6306763        -1.12450633E-15
   66.7574692        -4.78228396E-16
   66.8842621         2.51495623E-16
   67.0110550         1.04445356E-15
   67.1378479         1.87593234E-15
   67.2646408         2.71725141E-15
   67.3914337         3.53650634E-15
   67.5182266         4.29952145E-15
   67.6450195         4.97097590E-15
   67.7718124         5.51569517E-15
   67.8986053         5.90006475E-15
   68.0253983         6.09350547E-15
   68.1521912         6.06999395E-15
   68.2789841         5.80952455E-15
   68.4057770         5.29948959E-15
   68.5325699         4.53588854E-15
   68.6593628         3.52431182E-15
   68.7861557         2.28063007E-15
   68.9129486         8.31349550E-16
   69.0397415        -7.86441292E-16
   69.1665344        -2.52553948E-15
   69.2933273        -4.32954792E-15
   69.4201126        -6.13425792E-15
   69.5469055        -7.86946293E-15
   69.6736984        -9.46119031E-15
   69.8004913        -1.08342934E-14
   69.9272842        -1.19153158E-14
   70.0540771        -1.26355733E-14
   70.1808701        -1.29343125E-14
   70.3076630        -1.27618482E-14
   70.4344559        -1.20825303E-14
   70.5612488        -1.08774362E-14
   70.6880417        -9.14661074E-15
   70.8148346        -6.91077537E-15
   70.9416275        -4.21232915E-15
   71.0684204        -1.11559671E-15
   71.1952133         2.29380164E-15
   71.3220062         5.91048622E-15
   71.4487991         9.61177752E-15
   71.5755920         1.32610784E-14
   71.7023849         1.67120905E-14
   71.8291779         1.98138049E-14
   71.9559708         2.24161001E-14
   72.0827637         2.43757922E-14
   72.2095566         2.55629038E-14
   72.3363495         2.58669547E-14
   72.4631424         2.52029842E-14
   72.5899353         2.35170685E-14
   72.7167282         2.07910014E-14
   72.8435211         1.70460078E-14
   72.9703140         1.23450817E-14
   73.0971069         6.79390431E-15
   73.2238922         5.40080966E-16
   73.3506851        -6.22936236E-15
   73.4774780        -1.32922814E-14
   73.6042709        -2.03974699E-14
   73.7310638        -2.72723501E-14
   73.8578568        -3.36321987E-14
   73.9846497        -3.91904933E-14
   74.1114426        -4.36702303E-14
   74.2382355        -4.68156668E-14
   74.3650284        -4.84041687E-14
   74.4918213        -4.82575981E-14
   74.6186142        -4.62527423E-14
   74.7454071        -4.23304207E-14
   74.8722000        -3.65025460E-14
   74.9989929        -2.88568980E-14
   75.1257858        -1.95592715E-14
   75.2525787        -8.85244721E-15
   75.3793716         2.94786397E-15
   75.5061646         1.54604418E-14
   75.6329575         2.82490909E-14
   75.7597504         4.08362207E-14
   75.8865433         5.27190122E-14
   76.0133362         6.33878123E-14
   76.1401291         7.23459988E-14
   76.2669220         7.91308886E-14
   76.3937149         8.33344488E-14
   76.5205078         8.46234703E-14
   76.6473007         8.27579650E-14
   76.7740936         7.76068866E-14
   76.9008865         6.91607890E-14
   77.0276718         5.75399645E-14
   77.1544647         4.29982181E-14
   77.2812576         2.59212190E-14
   77.4080505         6.81937417E-15
   77.5348434        -1.36847651E-14
   77.6616364        -3.48745860E-14
   77.7884293        -5.59624673E-14
   77.9152222        -7.61172131E-14
   78.0420151        -9.44949753E-14
   78.1688080        -1.10272760E-13
   78.2956009        -1.22682897E-13
   78.4223938        -1.31047666E-13
   78.5491867        -1.34812192E-13
   78.6759796        -1.33574182E-13
   78.8027725        -1.27109464E-13
   78.9295654        -1.15391149E-13
   79.0563583        -9.86026311E-14
   79.1831512        -7.71416893E-14
   79.3099442        -5.16166733E-14
   79.4367371        -2.28333011E-14
   79.5635300         8.22734621E-15
   79.6903229         4.04394468E-14
   79.8171158         7.25708488E-14
   79.9439087         1.03328133E-13
   80.0707016         1.31406903E-13
   80.1974945         1.55545295E-13
   80.3242874         1.74578573E-13
   80.4510803         1.87493182E-13
   80.5778732         1.93476921E-13
   80.7046585         1.91963849E-13
   80.8314514         1.82671031E-13
   80.9582443         1.65625529E-13
   81.0850372         1.41179521E-13
   81.2118301         1.10012673E-13
   81.3386230         7.31206545E-14
   81.4654160         3.17894548E-14
   81.5922089        -1.24441075E-14
   81.7190018        -5.78445305E-14
   81.8457947        -1.02541416E-13
   81.9725876        -1.44602510E-13
   82.0993805        -1.82113371E-13
   82.2261734        -2.13260521E-13
   82.3529663        -2.36415515E-13
   82.4797592        -2.50214373E-13
   82.6065521        -2.53631372E-13
   82.7333450        -2.46041794E-13
   82.8601379        -2.27270215E-13
   82.9869308        -1.97622341E-13
   83.1137238        -1.57899315E-13
   83.2405167        -1.09387631E-13
   83.3673096        -5.38318034E-14
   83.4941025         6.61835885E-15
   83.6208954         6.94782366E-14
   83.7476883         1.32019612E-13
   83.8744812         1.91376659E-13
   84.0012741         2.44663962E-13
   84.1280670         2.89103350E-13
   84.2548599         3.22151810E-13
   84.3816528         3.41628364E-13
   84.5084381         3.45831301E-13
   84.6352310         3.33641724E-13
   84.7620239         3.04609392E-13
   84.8888168         2.59011400E-13
   85.0156097         1.97886426E-13
   85.1424026         1.23034666E-13
   85.2691956         3.69872996E-14
   85.3959885        -5.70603406E-14
   85.5227814        -1.55345571E-13
   85.6495743        -2.53667719E-13
   85.7763672        -3.47544151E-13
   85.9031601        -4.32386196E-13
   86.0299530        -5.03693278E-13
   86.1567459        -5.57252812E-13
   86.2835388        -5.89342485E-13
   86.4103317        -5.96920842E-13
   86.5371246        -5.77804623E-13
   86.6639175        -5.30816602E-13
   86.7907104        -4.55902948E-13
   86.9175034        -3.54207711E-13
   87.0442963        -2.28103560E-13
   87.1710892        -8.11694665E-14
   87.2978821         8.18795308E-14
   87.4246750         2.55319691E-13
   87.5514679         4.32591137E-13
   87.6782608         6.06520530E-13
   87.8050537         7.69578303E-13
   87.9318466         9.14170757E-13
   88.0586395         1.03294803E-12
   88.1854324         1.11912519E-12
   88.3122177         1.16679550E-12
   88.4390106         1.17122902E-12
   88.5658035         1.12913899E-12
   88.6925964         1.03890410E-12
   88.8193893         9.00737601E-13
   88.9461823         7.16789638E-13
   89.0729752         4.91178224E-13
   89.1997681         2.29940741E-13
   89.3265610        -5.90944326E-14
   89.4533539        -3.66516577E-13
   89.5801468        -6.81617414E-13
   89.7069397        -9.92739853E-13
   89.8337326        -1.28769120E-12
   89.9605255        -1.55419503E-12
   90.0873184        -1.78037359E-12
   90.2141113        -1.95523784E-12
   90.3409042        -2.06917274E-12
   90.4676971        -2.11438744E-12
   90.5944901        -2.08531955E-12
   90.7212830        -1.97896842E-12
   90.8480759        -1.79515235E-12
   90.9748688        -1.53665177E-12
   91.1016617        -1.20925394E-12
   91.2284546        -8.21677036E-13
   91.3552475        -3.85370474E-13
   91.4820404         8.57980001E-14
   91.6088333         5.75970261E-13
   91.7356262         1.06782270E-12
   91.8624191         1.54317878E-12
   91.9892120         1.98367928E-12
   92.1159973         2.37149363E-12
   92.2427902         2.69004762E-12
   92.3695831         2.92472361E-12
   92.4963760         3.06352448E-12
   92.6231689         3.09766297E-12
   92.7499619         3.02204529E-12
   92.8767548         2.83562431E-12
   93.0035477         2.54162988E-12
   93.1303406         2.14760458E-12
   93.2571335         1.66529757E-12
   93.3839264         1.11036961E-12
   93.5107193         5.01928631E-13
   93.6375122        -1.38087174E-13
   93.7643051        -7.85668460E-13
   93.8910980        -1.41561773E-12
   94.0178909        -2.00251469E-12
   94.1446838        -2.52172892E-12
   94.2714767        -2.95045260E-12
   94.3982697        -3.26870020E-12
   94.5250626        -3.46024164E-12
   94.6518555        -3.51342523E-12
   94.7786484        -3.42184961E-12
   94.9054413        -3.18485429E-12
   95.0322342        -2.80780130E-12
   95.1590271        -2.30212420E-12
   95.2858200        -1.68512882E-12
   95.4126129        -9.79558990E-13
   95.5394058        -2.12909985E-13
   95.6661987         5.83488932E-13
   95.7929916         1.37556589E-12
   95.9197769         2.12778254E-12
   96.0465698         2.80452636E-12
   96.1733627         3.37156301E-12
   96.3001556         3.79751612E-12
   96.4269485         4.05530167E-12
   96.5537415         4.12343250E-12
   96.6805344         3.98722244E-12
   96.8073273         3.63972177E-12
   96.9341202         3.08241887E-12
   97.0609131         2.32563643E-12
   97.1877060         1.38860158E-12
   97.3144989         2.99161629E-13
   97.4412918        -9.06844532E-13
   97.5680847        -2.18656039E-12
   97.6948776        -3.49141614E-12
   97.8216705        -4.76869499E-12
   97.9484634        -5.96335698E-12
   98.0752563        -7.02003256E-12