  -4.50000000         0.00000000    
  -4.37320757         0.00000000    
  -4.24641466         0.00000000    
  -4.11962223         0.00000000    
  -3.99282932         0.00000000    
  -3.86603665         0.00000000    
  -3.73924398         0.00000000    
  -3.61245155         0.00000000    
  -3.48565888         0.00000000    
  -3.35886621         0.00000000    
  -3.23207355         0.00000000    
  -3.10528088         0.00000000    
  -2.97848821         0.00000000    
  -2.85169554         0.00000000    
  -2.72490287         0.00000000    
  -2.59811020         0.00000000    
  -2.47131753         0.00000000    
  -2.34452486         0.00000000    
  -2.21773219         0.00000000    
  -2.09093952         0.00000000    
  -1.96414697         0.00000000    
  -1.83735430         0.00000000    
  -1.71056163         0.00000000    
  -1.58376896         0.00000000    
  -1.45697629         0.00000000    
  -1.33018374         0.00000000    
  -1.20339108         0.00000000    
  -1.07659841         0.00000000    
 -0.949805737         0.00000000    
 -0.823013067         0.00000000    
 -0.696220458         0.00000000    
 -0.569427788         0.00000000    
 -0.442635119         0.00000000    
 -0.315842479         0.00000000    
 -0.189049825         0.00000000    
  -6.22571707E-02     0.00000000    
   6.45354837E-02     0.00000000    
  0.191328138         0.00000000    
  0.318120778         0.00000000    
  0.444913447         0.00000000    
  0.571706116         0.00000000    
  0.698498726         0.00000000    
  0.825291395         0.00000000    
  0.952084064         0.00000000    
   1.07887673         0.00000000    
   1.20566940         0.00000000    
   1.33246195         0.00000000    
   1.45925462         0.00000000    
   1.58604729         0.00000000    
   1.71283996         0.00000000    
   1.83963263         0.00000000    
   1.96642530         0.00000000    
   2.09321785         0.00000000    
   2.22001052         0.00000000    
   2.34680319         0.00000000    
   2.47359586         0.00000000    
   2.60038853         0.00000000    
   2.72718120         0.00000000    
   2.85397387         0.00000000    
   2.98076653         0.00000000    
   3.10755920         0.00000000    
   3.23435187         0.00000000    
   3.36114454         0.00000000    
   3.48793697         0.00000000    
   3.61472964         0.00000000    
   3.74152231         0.00000000    
   3.86831498         0.00000000    
   3.99510765         0.00000000    
   4.12190056         0.00000000    
   4.24869299         0.00000000    
   4.37548542         0.00000000    
   4.50227833         0.00000000    
   4.62907076         0.00000000    
   4.75586367         0.00000000    
   4.88265610         0.00000000    
   5.00944901         0.00000000    
   5.13624144         0.00000000    
   5.26303434         0.00000000    
   5.38982677         0.00000000    
   5.51661968         0.00000000    
   5.64341211         0.00000000    
   5.77020502         0.00000000    
   5.89699745         0.00000000    
   6.02379036         0.00000000    
   6.15058279         0.00000000    
   6.27737522         0.00000000    
   6.40416813         0.00000000    
   6.53096056         0.00000000    
   6.65775347         0.00000000    
   6.78454590         0.00000000    
   6.91133881         0.00000000    
   7.03813124         0.00000000    
   7.16492414         0.00000000    
   7.29171658         0.00000000    
   7.41850948         0.00000000    
   7.54530191         0.00000000    
   7.67209482         0.00000000    
   7.79888725         0.00000000    
   7.92567968         0.00000000    
   8.05247211         0.00000000    
   8.17926502         0.00000000    
   8.30605793         0.00000000    
   8.43285084         0.00000000    
   8.55964279         0.00000000    
   8.68643570         0.00000000    
   8.81322861         0.00000000    
   8.94002151         0.00000000    
   9.06681347         0.00000000    
   9.19360638         0.00000000    
   9.32039928         0.00000000    
   9.44719219         0.00000000    
   9.57398415         0.00000000    
   9.70077705         0.00000000    
   9.82756996         0.00000000    
   9.95436192         0.00000000    
   10.0811548         0.00000000    
   10.2079477         0.00000000    
   10.3347406         0.00000000    
   10.4615326         0.00000000    
   10.5883255         0.00000000    
   10.7151184         0.00000000    
   10.8419113         0.00000000    
   10.9687033         0.00000000    
   11.0954962         0.00000000    
   11.2222891         0.00000000    
   11.3490820         0.00000000    
   11.4758739         0.00000000    
   11.6026669         0.00000000    
   11.7294598         0.00000000    
   11.8562517         0.00000000    
   11.9830446         0.00000000    
   12.1098375         0.00000000    
   12.2366304         0.00000000    
   12.3634224         0.00000000    
   12.4902153         0.00000000    
   12.6170082         0.00000000    
   12.7438011         0.00000000    
   12.8705931         0.00000000    
   12.9973860         0.00000000    
   13.1241789         0.00000000    
   13.2509708         0.00000000    
   13.3777637         0.00000000    
   13.5045567         0.00000000    
   13.6313496         0.00000000    
   13.7581415         0.00000000    
   13.8849344         0.00000000    
   14.0117273         0.00000000    
   14.1385202         0.00000000    
   14.2653122         0.00000000    
   14.3921051         0.00000000    
   14.5188980         0.00000000    
   14.6456909         0.00000000    
   14.7724829         0.00000000    
   14.8992758         0.00000000    
   15.0260687         0.00000000    
   15.1528606         0.00000000    
   15.2796535         0.00000000    
   15.4064465         0.00000000    
   15.5332394         0.00000000    
   15.6600313         0.00000000    
   15.7868242         0.00000000    
   15.9136171         0.00000000    
   16.0404091         0.00000000    
   16.1672020         0.00000000    
   16.2939949         0.00000000    
   16.4207878         0.00000000    
   16.5475807         0.00000000    
   16.6743736         0.00000000    
   16.8011646         0.00000000    
   16.9279575         0.00000000    
   17.0547504         0.00000000    
   17.1815434         0.00000000    
   17.3083363         0.00000000    
   17.4351292         0.00000000    
   17.5619221         0.00000000    
   17.6887150         0.00000000    
   17.8155060         0.00000000    
   17.9422989         0.00000000    
   18.0690918         0.00000000    
   18.1958847         0.00000000    
   18.3226776         0.00000000    
   18.4494705         0.00000000    
   18.5762634         0.00000000    
   18.7030544         0.00000000    
   18.8298473         0.00000000    
   18.9566402         0.00000000    
   19.0834332         0.00000000    
   19.2102261         0.00000000    
   19.3370190         0.00000000    
   19.4638119         0.00000000    
   19.5906048         0.00000000    
   19.7173958         1.37753990E-35
   19.8441887         5.70478257E-35
   19.9709816         2.71802993E-34
   20.0977745         3.36841075E-34
   20.2245674         2.41172135E-34
   20.3513603         2.58375771E-34
   20.4781532         6.08947629E-34
   20.6049442         3.62713476E-34
   20.7317371        -3.23458508E-34
   20.8585300        -6.49756018E-34
   20.9853230        -5.86271333E-34
   21.1121159         3.03185542E-33
   21.2389088         8.32937591E-33
   21.3657017         1.40664944E-32
   21.4924946         2.01860034E-32
   21.6192856         2.41567998E-32
   21.7460785         2.47479735E-32
   21.8728714         1.58064082E-32
   21.9996643         4.50759068E-33
   22.1264572        -1.45367950E-32
   22.2532501        -3.45865086E-32
   22.3800430        -5.27320301E-32
   22.5068340        -1.20827654E-31
   22.6336269        -4.23078378E-31
   22.7604198        -1.13192536E-30
   22.8872128        -1.70773713E-30
   23.0140057        -2.26231242E-30
   23.1407986        -2.32560536E-30
   23.2675915        -1.97374379E-30
   23.3943844        -1.20972794E-30
   23.5211754        -7.26157874E-31
   23.6479683        -6.71056576E-31
   23.7747612        -1.37079023E-30
   23.9015541        -2.69249840E-30
   24.0283470        -5.44054521E-30
   24.1551399        -1.03045580E-29
   24.2819328        -2.19393453E-29
   24.4087238        -4.08704181E-29
   24.5355167        -6.98723652E-29
   24.6623096        -1.06815999E-28
   24.7891026        -1.40915660E-28
   24.9158955        -1.73144099E-28
   25.0426884        -1.97149335E-28
   25.1694813        -2.03539427E-28
   25.2962742        -1.96058886E-28
   25.4230652        -1.66042028E-28
   25.5498581        -1.17125947E-28
   25.6766510        -5.11417937E-29
   25.8034439         2.62485835E-29
   25.9302368         1.12980527E-28
   26.0570297         2.02343280E-28
   26.1838226         2.86552135E-28
   26.3106136         3.56705361E-28
   26.4374065         4.07549021E-28
   26.5641994         4.33240878E-28
   26.6909924         4.27320618E-28
   26.8177853         3.80880982E-28
   26.9445782         2.95266029E-28
   27.0713711         1.69135794E-28
   27.1981640         1.12834349E-30
   27.3249550        -2.08799358E-28
   27.4517479        -4.68316251E-28
   27.5785408        -7.69169620E-28
   27.7053337        -1.10380197E-27
   27.8321266        -1.45914731E-27
   27.9589195        -1.80719039E-27
   28.0857124        -2.11477046E-27
   28.2125034        -2.33805700E-27
   28.3392963        -2.42303885E-27
   28.4660892        -2.30885605E-27
   28.5928822        -1.93623945E-27
   28.7196751        -1.24816120E-27
   28.8464680        -2.00569871E-28
   28.9732609         1.23188257E-27
   29.1000538         3.04491758E-27
   29.2268448         5.19569715E-27
   29.3536377         7.59235557E-27
   29.4804306         1.00865219E-26
   29.6072235         1.24712700E-26
   29.7340164         1.44793016E-26
   29.8608093         1.57898044E-26
   29.9876022         1.60427407E-26
   30.1143932         1.48602397E-26
   30.2411861         1.18761908E-26
   30.3679790         6.77375292E-27
   30.4947720        -6.70826003E-28
   30.6215649        -1.05389205E-26
   30.7483578        -2.27208180E-26
   30.8751507        -3.68663174E-26
   31.0019417        -5.23419071E-26
   31.1287346        -6.82011360E-26
   31.2555275        -8.31732599E-26
   31.3823204        -9.56739565E-26
   31.5091133        -1.03846944E-25
   31.6359062        -1.05637942E-25
   31.7626991        -9.89093093E-26
   31.8894920        -8.15948725E-26
   32.0162849        -5.18916031E-26
   32.1430779        -8.48610417E-27
   32.2698708         4.91935263E-26
   32.3966637         1.20714207E-25
   32.5234528         2.04380512E-25
   32.6502457         2.97005662E-25
   32.7770386         3.93738424E-25
   32.9038315         4.87979988E-25
   33.0306244         5.71412284E-25
   33.1574173         6.34177756E-25
   33.2842102         6.65228258E-25
   33.4110031         6.52866068E-25
   33.5377960         5.85482950E-25
   33.6645889         4.52496285E-25
   33.7913818         2.45453356E-25
   33.9181747        -4.07306943E-26
   34.0449677        -4.06462110E-25
   34.1717606        -8.46182004E-25
   34.2985535        -1.34717731E-24
   34.4253426        -1.88863970E-24
   34.5521355        -2.44108708E-24
   34.6789284        -2.96627734E-24
   34.8057213        -3.41776709E-24
   34.9325142        -3.74221690E-24
   35.0593071        -3.88154117E-24
   35.1861000        -3.77595609E-24
   35.3128929        -3.36790358E-24
   35.4396858        -2.60681827E-24
   35.5664787        -1.45454542E-24
   35.6932716         1.08758219E-25
   35.8200645         2.07864553E-24
   35.9468575         4.42063965E-24
   36.0736504         7.06527887E-24
   36.2004433         9.90436718E-24
   36.3272324         1.27892228E-23
   36.4540253         1.55312339E-23
   36.5808182         1.79053329E-23
   36.7076111         1.96569686E-23
   36.8344040         2.05126129E-23
   36.9611969         2.01941150E-23
   37.0879898         1.84366497E-23
   37.2147827         1.50099152E-23
   37.3415756         9.74165436E-24
   37.4683685         2.54277184E-24
   37.5951614        -6.56768158E-24
   37.7219543        -1.74391918E-23
   37.8487473        -2.97701464E-23
   37.9755402        -4.30939282E-23
   38.1023293        -5.67728742E-23
   38.2291222        -7.00024376E-23
   38.3559151        -8.18272732E-23
   38.4827080        -9.11702073E-23
   38.6095009        -9.68761771E-23
   38.7362938        -9.77696788E-23
   38.8630867        -9.27262070E-23
   38.9898796        -8.07550282E-23
   39.1166725        -6.10905497E-23
   39.2434654        -3.32878350E-23
   39.3702583         2.68258955E-24
   39.4970512         4.63474304E-23
   39.6238441         9.66577005E-23
   39.7506371         1.51937034E-22
   39.8774300         2.09859947E-22
   40.0042191         2.67466079E-22
   40.1310120         3.21216487E-22
   40.2578049         3.67097419E-22
   40.3845978         4.00772314E-22
   40.5113907         4.17783386E-22
   40.6381836         4.13798338E-22
   40.7649765         3.84894626E-22
   40.8917694         3.27872933E-22
   41.0185623         2.40582230E-22
   41.1453552         1.22242732E-22
   41.2721481        -2.62592452E-23
   41.3989410        -2.02118293E-22
   41.5257339        -4.00433394E-22
   41.6525269        -6.14119203E-22
   41.7793198        -8.33935635E-22
   41.9061089        -1.04864520E-21
   42.0329018        -1.24532243E-21
   42.1596947        -1.40980011E-21
   42.2864876        -1.52727712E-21
   42.4132805        -1.58305173E-21
   42.5400734        -1.56337005E-21
   42.6668663        -1.45635880E-21
   42.7936592        -1.25299102E-21
   42.9204521        -9.48044302E-22
   43.0472450        -5.40982987E-22
   43.1740379        -3.67154577E-23
   43.3008308         5.53856086E-22
   43.4276237         1.21352909E-21
   43.5544167         1.91882214E-21
   43.6812096         2.64033487E-21
   43.8079987         3.34349453E-21
   43.9347916         3.98970454E-21
   44.0615845         4.53784458E-21
   44.1883774         4.94614667E-21
   44.3151703         5.17429786E-21
   44.4419632         5.18578024E-21
   44.5687561         4.95024258E-21
   44.6955490         4.44584618E-21
   44.8223419         3.66141199E-21
   44.9491348         2.59821227E-21
   45.0759277         1.27129825E-21
   45.2027206        -2.89800764E-22
   45.3295135        -2.04110633E-21
   45.4563065        -3.92497645E-21
   45.5830994        -5.87178439E-21
   45.7098885        -7.80230843E-21
   45.8366814        -9.63091072E-21
   45.9634743        -1.12693673E-20
   46.0902672        -1.26310035E-20
   46.2170601        -1.36351208E-20
   46.3438530        -1.42112570E-20
   46.4706459        -1.43032307E-20
   46.5974388        -1.38723730E-20
   46.7242317        -1.28999140E-20
   46.8510246        -1.13882180E-20
   46.9778175        -9.36067066E-21
   47.1046104        -6.86002369E-21
   47.2314034        -3.94560669E-21
   47.3581963        -6.88923866E-22
   47.4849892         2.83149053E-21
   47.6117783         6.53594580E-21
   47.7385712         1.03496871E-20
   47.8653641         1.42084135E-20
   47.9921570         1.80627198E-20
   48.1189499         2.18808271E-20
   48.2457428         2.56489789E-20
   48.3725357         2.93688926E-20
   48.4993286         3.30517527E-20
   48.6261215         3.67092351E-20
   48.7529144         4.03408941E-20
   48.8797073         4.39189769E-20
   49.0065002         4.73710181E-20
   49.1332932         5.05620773E-20
   49.2600861         5.32772686E-20
   49.3868790         5.52072296E-20
   49.5136681         5.59377723E-20
   49.6404610         5.49471524E-20
   49.7672539         5.16120700E-20
   49.8940468         4.52242485E-20
   50.0208397         3.50201420E-20
   50.1476326         2.02251040E-20
   50.2744255         1.09536543E-22
   50.4012184        -2.59394130E-20
   50.5280113        -5.83360855E-20
   50.6548042        -9.72056321E-20
   50.7815971        -1.42289463E-19
   50.9083900        -1.92851512E-19
   51.0351830        -2.47594234E-19
   51.1619759        -3.04589331E-19
   51.2887688        -3.61233961E-19
   51.4155579        -4.14237937E-19
   51.5423508        -4.59656253E-19
   51.6691437        -4.92966351E-19
   51.7959366        -5.09203751E-19
   51.9227295        -5.03154941E-19
   52.0495224        -4.69610545E-19
   52.1763153        -4.03673755E-19
   52.3031082        -3.01123961E-19
   52.4299011        -1.58815576E-19
   52.5566940         2.48959360E-20
   52.6834869         2.49726266E-19
   52.8102798         5.13053398E-19
   52.9370728         8.09556341E-19
   53.0638657         1.13093581E-18
   53.1906586         1.46574078E-18
   53.3174477         1.79934345E-18
   53.4442406         2.11408091E-18
   53.5710335         2.38960071E-18
   53.6978264         2.60340974E-18
   53.8246193         2.73167154E-18
   53.9514122         2.75020679E-18
   54.0782051         2.63571672E-18
   54.2049980         2.36720252E-18
   54.3317909         1.92750784E-18
   54.4585838         1.30496468E-18
   54.5853767         4.95039679E-19
   54.7121696        -4.98078069E-19
   54.8389626        -1.66008128E-18
   54.9657555        -2.96538935E-18
   55.0925484        -4.37641782E-18
   55.2193375        -5.84330394E-18
   55.3461304        -7.30422980E-18
   55.4729233        -8.68643620E-18
   55.5997162        -9.90793050E-18
   55.7265091        -1.08800042E-17
   55.8533020        -1.15105119E-17
   55.9800949        -1.17078457E-17
   56.1068878        -1.13856283E-17
   56.2336807        -1.04678656E-17
   56.3604736        -8.89443821E-18
   56.4872665        -6.62677591E-18
   56.6140594        -3.65331514E-18
   56.7408524         5.44184152E-21
   56.8676453         4.29265792E-18
   56.9944382         9.11194618E-18
   57.1212273         1.43256829E-17
   57.2480202         1.97549160E-17
   57.3748131         2.51813995E-17
   57.5016060         3.03518276E-17
   57.6283989         3.49842904E-17
   57.7551918         3.87773338E-17
   57.8819847         4.14211387E-17
   58.0087776         4.26109222E-17
   58.1355705         4.20620415E-17
   58.2623634         3.95265146E-17
   58.3891563         3.48101391E-17
   58.5159492         2.77896753E-17
   58.6427422         1.84292184E-17
   58.7695351         6.79482468E-18
   58.8963280        -6.93353046E-18
   59.0231171        -2.24535762E-17
   59.1499100        -3.93368288E-17
   59.2767029        -5.70301526E-17
   59.4034958        -7.48630483E-17
   59.5302887        -9.20616552E-17
   59.6570816        -1.07769418E-16
   59.7838745        -1.21074201E-16
   59.9106674        -1.31042045E-16
   60.0374603        -1.36756328E-16
   60.1642532        -1.37361388E-16
   60.2910461        -1.32109452E-16
   60.4178391        -1.20408950E-16
   60.5446320        -1.01872011E-16
   60.6714249        -7.63591798E-17
   60.7982178        -4.40188365E-17
   60.9250069        -5.31877920E-18
   61.0517998         3.89323342E-17
   61.1785927         8.75763709E-17
   61.3053856         1.39111053E-16
   61.4321785         1.91711839E-16
   61.5589714         2.43270351E-16
   61.6857643         2.91450829E-16
   61.8125572         3.33763301E-16
   61.9393501         3.67652533E-16
   62.0661430         3.90601170E-16
   62.1929359         4.00243529E-16
   62.3197289         3.94486775E-16
   62.4465218         3.71634594E-16
   62.5733147         3.30508841E-16
   62.7001076         2.70562043E-16
   62.8268967         1.91977304E-16
   62.9536896         9.57468176E-17
   63.0804825        -1.62744940E-17
   63.2072754        -1.41346969E-16
   63.3340683        -2.75859652E-16
   63.4608612        -4.15382469E-16
   63.5876541        -5.54760576E-16
   63.7144470        -6.88248257E-16
   63.8412399        -8.09686259E-16
   63.9680328        -9.12713047E-16
   64.0948257        -9.91011184E-16
   64.2216187        -1.03857600E-15
   64.3484116        -1.05000269E-15
   64.4752045        -1.02077677E-15
   64.6019974        -9.47559876E-16
   64.7287903        -8.28455397E-16
   64.8555832        -6.63240191E-16
   64.9823761        -4.53552421E-16
   65.1091690        -2.03019742E-16
   65.2359619         8.26844380E-17
   65.3627548         3.95862304E-16
   65.4895477         7.26901494E-16
   65.6163330         1.06447488E-15
   65.7431259         1.39583343E-15
   65.8699188         1.70718707E-15
   65.9967117         1.98416430E-15
   66.1235046         2.21234481E-15
   66.2502975         2.37784489E-15
   66.3770905         2.46793235E-15
   66.5038834         2.47166099E-15
   66.6306763         2.38048276E-15
   66.7574692         2.18882589E-15
   66.8842621         1.89459904E-15
   67.0110550         1.49960047E-15
   67.1378479         1.00980430E-15
   67.2646408         4.35501672E-16
   67.3914337        -2.08725091E-16
   67.5182266        -9.04204495E-16
   67.6450195        -1.62856685E-15
   67.7718124        -2.35631670E-15
   67.8986053        -3.05959121E-15
   68.0253983        -3.70907427E-15
   68.1521912        -4.27505194E-15
   68.2789841        -4.72857625E-15
   68.4057770        -5.04269122E-15
   68.5325699        -5.19368585E-15
   68.6593628        -5.16231302E-15
   68.7861557        -4.93492830E-15
   68.9129486        -4.50449792E-15
   69.0397415        -3.87140347E-15
   69.1665344        -3.04402529E-15
   69.2933273        -2.03903107E-15
   69.4201126        -8.81352340E-16
   69.5469055         3.96176182E-16
   69.6736984         1.75354010E-15
   69.8004913         3.14460325E-15
   69.9272842         4.51851716E-15
   70.0540771         5.82142028E-15
   70.1808701         6.99837933E-15
   70.3076630         7.99554548E-15
   70.4344559         8.76240676E-15
   70.5612488         9.25407127E-15
   70.6880417         9.43348217E-15
   70.8148346         9.27348442E-15
   70.9416275         8.75860697E-15
   71.0684204         7.88650185E-15
   71.1952133         6.66892968E-15
   71.3220062         5.13223743E-15
   71.4487991         3.31724297E-15
   71.5755920         1.27852519E-15
   71.7023849        -9.16939529E-16
   71.8291779        -3.19172878E-15
   71.9559708        -5.46052876E-15
   72.0827637        -7.63318225E-15
   72.2095566        -9.61814636E-15
   72.3363495        -1.13262722E-14
   72.4631424        -1.26747063E-14
   72.5899353        -1.35908156E-14
   72.7167282        -1.40159245E-14
   72.8435211        -1.39087147E-14
   72.9703140        -1.32480866E-14
   73.0971069        -1.20353675E-14
   73.2238922        -1.02956719E-14
   73.3506851        -8.07832178E-15
   73.4774780        -5.45621779E-15
   73.6042709        -2.52417449E-15
   73.7310638         6.03885311E-16
   73.8578568         3.79876235E-15
   73.9846497         6.92072251E-15
   74.1114426         9.82511971E-15
   74.2382355         1.23685894E-14
   74.3650284         1.44156486E-14
   74.4918213         1.58454335E-14
   74.6186142         1.65582727E-14
   74.7454071         1.64818026E-14
   74.8722000         1.55762871E-14
   74.9989929         1.38388937E-14
   75.1257858         1.13066024E-14
   75.2525787         8.05753305E-15
   75.3793716         4.21052328E-15
   75.5061646        -7.72145706E-17
   75.6329575        -4.61434751E-15
   75.7597504        -9.18164064E-15
   75.8865433        -1.35398581E-14
   76.0133362        -1.74393767E-14
   76.1401291        -2.06309867E-14
   76.2669220        -2.28776365E-14
   76.3937149        -2.39666634E-14
   76.5205078        -2.37219742E-14
   76.6473007        -2.20156653E-14
   76.7740936        -1.87785138E-14
   76.9008865        -1.40086756E-14
   77.0276718        -7.77833998E-15
   77.1544647        -2.37520956E-16
   77.2812576         8.38521537E-15
   77.4080505         1.77853812E-14
   77.5348434         2.75889219E-14
   77.6616364         3.73620948E-14
   77.7884293         4.66249083E-14
   77.9152222         5.48679449E-14
   78.0420151         6.15717533E-14
   78.1688080         6.62289302E-14
   78.2956009         6.83673157E-14
   78.4223938         6.75741201E-14
   78.5491867         6.35196919E-14
   78.6759796         5.59800788E-14
   78.8027725         4.48571403E-14
   78.9295654         3.01954235E-14
   79.0563583         1.21945453E-14
   79.1831512        -8.78354786E-15
   79.3099442        -3.22134558E-14
   79.4367371        -5.74116492E-14
   79.5635300        -8.35487617E-14
   79.6903229        -1.09668995E-13
   79.8171158        -1.34716050E-13
   79.9439087        -1.57565814E-13
   80.0707016        -1.77064391E-13
   80.1974945        -1.92070833E-13
   80.3242874        -2.01502958E-13
   80.4510803        -2.04385174E-13
   80.5778732        -1.99896035E-13
   80.7046585        -1.87414280E-13
   80.8314514        -1.66560599E-13
   80.9582443        -1.37234367E-13
   81.0850372        -9.96421505E-14
   81.2118301        -5.43175158E-14
   81.3386230        -2.12978494E-15
   81.4654160         5.57188335E-14
   81.5922089         1.17709011E-13
   81.7190018         1.82033018E-13
   81.8457947         2.46636370E-13
   81.9725876         3.09271624E-13
   82.0993805         3.67564323E-13
   82.2261734         4.19087101E-13
   82.3529663         4.61442896E-13
   82.4797592         4.92352361E-13
   82.6065521         5.09743994E-13
   82.7333450         5.11843064E-13
   82.8601379         4.97256424E-13
   82.9869308         4.65050253E-13
   83.1137238         4.14816971E-13
   83.2405167         3.46726771E-13
   83.3673096         2.61565292E-13
   83.4941025         1.60749018E-13
   83.6208954         4.63225175E-14
   83.7476883        -7.90683166E-14
   83.8744812        -2.12224362E-13
   84.0012741        -3.49463920E-13
   84.1280670        -4.86714727E-13
   84.2548599        -6.19623764E-13
   84.3816528        -7.43685007E-13
   84.5084381        -8.54378092E-13
   84.6352310        -9.47317203E-13
   84.7620239        -1.01840270E-12
   84.8888168        -1.06397194E-12
   85.0156097        -1.08094404E-12
   85.1424026        -1.06695252E-12
   85.2691956        -1.02046095E-12
   85.3959885        -9.40858394E-13
   85.5227814        -8.28525941E-13
   85.6495743        -6.84877285E-13
   85.7763672        -5.12363752E-13
   85.9031601        -3.14448961E-13
   86.0299530        -9.55459263E-14
   86.1567459         1.39076996E-13
   86.2835388         3.83424846E-13
   86.4103317         6.30930041E-13
   86.5371246         8.74635108E-13
   86.6639175         1.10739131E-12
   86.7907104         1.32207353E-12
   86.9175034         1.51179980E-12
   87.0442963         1.67015154E-12
   87.1710892         1.79138670E-12
   87.2978821         1.87063429E-12
   87.4246750         1.90406957E-12
   87.5514679         1.88906031E-12
   87.6782608         1.82427662E-12
   87.8050537         1.70976070E-12
   87.9318466         1.54695885E-12
   88.0586395         1.33870356E-12
   88.1854324         1.08915372E-12
   88.3122177         8.03690990E-13
   88.4390106         4.88775036E-13
   88.5658035         1.51762270E-13
   88.6925964        -1.99305335E-13
   88.8193893        -5.55935181E-13
   88.9461823        -9.09433282E-13
   89.0729752        -1.25116291E-12
   89.1997681        -1.57279647E-12
   89.3265610        -1.86656007E-12
   89.4533539        -2.12545324E-12
   89.5801468        -2.34344445E-12
   89.7069397        -2.51562573E-12
   89.8337326        -2.63832857E-12
   89.9605255        -2.70919355E-12
   90.0873184        -2.72718935E-12
   90.2141113        -2.69258682E-12
   90.3409042        -2.60687999E-12
   90.4676971        -2.47266942E-12
   90.5944901        -2.29350219E-12
   90.7212830        -2.07368584E-12
   90.8480759        -1.81807542E-12
   90.9748688        -1.53185396E-12
   91.1016617        -1.22030608E-12
   91.2284546        -8.88606246E-13
   91.3552475        -5.41628266E-13
   91.4820404        -1.83778353E-13
   91.6088333         1.81120242E-13
   91.7356262         5.49903547E-13
   91.8624191         9.20085948E-13
   91.9892120         1.28982448E-12
   92.1159973         1.65782514E-12
   92.2427902         2.02319802E-12
   92.3695831         2.38525866E-12
   92.4963760         2.74329908E-12
   92.6231689         3.09631682E-12
   92.7499619         3.44273655E-12
   92.8767548         3.78013940E-12
   93.0035477         4.10498415E-12
   93.1303406         4.41238582E-12
   93.2571335         4.69593852E-12
   93.3839264         4.94759615E-12
   93.5107193         5.15765035E-12
   93.6375122         5.31479374E-12
   93.7643051         5.40629130E-12
   93.8910980         5.41825482E-12
   94.0178909         5.33604237E-12
   94.1446838         5.14475008E-12
   94.2714767         4.82981060E-12
   94.3982697         4.37767227E-12
   94.5250626         3.77654852E-12
   94.6518555         3.01720151E-12
   94.7786484         2.09374575E-12
   94.9054413         1.00442940E-12
   95.0322342        -2.47630773E-13
   95.1590271        -1.65380611E-12
   95.2858200        -3.19943616E-12
   95.4126129        -4.86345469E-12
   95.5394058        -6.61820902E-12
   95.6661987        -8.42950709E-12
   95.7929916        -1.02568700E-11
   95.9197769        -1.20540652E-11
   96.0465698        -1.37698837E-11
   96.1733627        -1.53491681E-11
   96.3001556        -1.67341072E-11
   96.4269485        -1.78657384E-11
   96.5537415        -1.86856398E-11
   96.6805344        -1.91377972E-11
   96.8073273        -1.91705662E-11
   96.9341202        -1.87386842E-11
   97.0609131        -1.78052642E-11
   97.1877060        -1.63437232E-11
   97.3144989        -1.43395625E-11
   97.4412918        -1.17919138E-11
   97.5680847        -8.71481446E-12
   97.6948776        -5.13813211E-12
   97.8216705        -1.10808487E-12
   97.9484634         3.31270102E-12
   98.0752563         8.04560325E-12